+ 0.2 0 1 tcp 40 ------- 0 0.0 2.0 0 0
- 0.2 0 1 tcp 40 ------- 0 0.0 2.0 0 0
r 0.20104 0 1 tcp 40 ------- 0 0.0 2.0 0 0
+ 0.20104 1 2 tcp 40 ------- 0 0.0 2.0 0 0
- 0.20104 1 2 tcp 40 ------- 0 0.0 2.0 0 0
r 0.203208 1 2 tcp 40 ------- 0 0.0 2.0 0 0
+ 0.203208 2 1 ack 40 ------- 0 2.0 0.0 0 1
- 0.203208 2 1 ack 40 ------- 0 2.0 0.0 0 1
r 0.205377 2 1 ack 40 ------- 0 2.0 0.0 0 1
+ 0.205377 1 0 ack 40 ------- 0 2.0 0.0 0 1
- 0.205377 1 0 ack 40 ------- 0 2.0 0.0 0 1
r 0.206417 1 0 ack 40 ------- 0 2.0 0.0 0 1
+ 0.206417 0 1 tcp 1040 ------- 0 0.0 2.0 1 2
- 0.206417 0 1 tcp 1040 ------- 0 0.0 2.0 1 2
+ 0.206417 0 1 tcp 1040 ------- 0 0.0 2.0 2 3
- 0.207457 0 1 tcp 1040 ------- 0 0.0 2.0 2 3
r 0.208457 0 1 tcp 1040 ------- 0 0.0 2.0 1 2
+ 0.208457 1 2 tcp 1040 ------- 0 0.0 2.0 1 2
- 0.208457 1 2 tcp 1040 ------- 0 0.0 2.0 1 2
r 0.209497 0 1 tcp 1040 ------- 0 0.0 2.0 2 3
+ 0.209497 1 2 tcp 1040 ------- 0 0.0 2.0 2 3
- 0.212836 1 2 tcp 1040 ------- 0 0.0 2.0 2 3
r 0.214836 1 2 tcp 1040 ------- 0 0.0 2.0 1 2
+ 0.214836 2 1 ack 40 ------- 0 2.0 0.0 1 4
- 0.214836 2 1 ack 40 ------- 0 2.0 0.0 1 4
r 0.217004 2 1 ack 40 ------- 0 2.0 0.0 1 4
+ 0.217004 1 0 ack 40 ------- 0 2.0 0.0 1 4
- 0.217004 1 0 ack 40 ------- 0 2.0 0.0 1 4
r 0.218044 1 0 ack 40 ------- 0 2.0 0.0 1 4
+ 0.218044 0 1 tcp 1040 ------- 0 0.0 2.0 3 5
- 0.218044 0 1 tcp 1040 ------- 0 0.0 2.0 3 5
+ 0.218044 0 1 tcp 1040 ------- 0 0.0 2.0 4 6
- 0.219084 0 1 tcp 1040 ------- 0 0.0 2.0 4 6
r 0.219215 1 2 tcp 1040 ------- 0 0.0 2.0 2 3
+ 0.219215 2 1 ack 40 ------- 0 2.0 0.0 2 7
- 0.219215 2 1 ack 40 ------- 0 2.0 0.0 2 7
r 0.220084 0 1 tcp 1040 ------- 0 0.0 2.0 3 5
+ 0.220084 1 2 tcp 1040 ------- 0 0.0 2.0 3 5
- 0.220084 1 2 tcp 1040 ------- 0 0.0 2.0 3 5
r 0.221124 0 1 tcp 1040 ------- 0 0.0 2.0 4 6
+ 0.221124 1 2 tcp 1040 ------- 0 0.0 2.0 4 6
r 0.221383 2 1 ack 40 ------- 0 2.0 0.0 2 7
+ 0.221383 1 0 ack 40 ------- 0 2.0 0.0 2 7
- 0.221383 1 0 ack 40 ------- 0 2.0 0.0 2 7
r 0.222423 1 0 ack 40 ------- 0 2.0 0.0 2 7
+ 0.222423 0 1 tcp 1040 ------- 0 0.0 2.0 5 8
- 0.222423 0 1 tcp 1040 ------- 0 0.0 2.0 5 8
+ 0.222423 0 1 tcp 1040 ------- 0 0.0 2.0 6 9
- 0.223463 0 1 tcp 1040 ------- 0 0.0 2.0 6 9
- 0.224463 1 2 tcp 1040 ------- 0 0.0 2.0 4 6
r 0.224463 0 1 tcp 1040 ------- 0 0.0 2.0 5 8
+ 0.224463 1 2 tcp 1040 ------- 0 0.0 2.0 5 8
r 0.225503 0 1 tcp 1040 ------- 0 0.0 2.0 6 9
+ 0.225503 1 2 tcp 1040 ------- 0 0.0 2.0 6 9
r 0.226463 1 2 tcp 1040 ------- 0 0.0 2.0 3 5
+ 0.226463 2 1 ack 40 ------- 0 2.0 0.0 3 10
- 0.226463 2 1 ack 40 ------- 0 2.0 0.0 3 10
r 0.228632 2 1 ack 40 ------- 0 2.0 0.0 3 10
+ 0.228632 1 0 ack 40 ------- 0 2.0 0.0 3 10
- 0.228632 1 0 ack 40 ------- 0 2.0 0.0 3 10
- 0.228842 1 2 tcp 1040 ------- 0 0.0 2.0 5 8
r 0.229672 1 0 ack 40 ------- 0 2.0 0.0 3 10
+ 0.229672 0 1 tcp 1040 ------- 0 0.0 2.0 7 11
- 0.229672 0 1 tcp 1040 ------- 0 0.0 2.0 7 11
+ 0.229672 0 1 tcp 1040 ------- 0 0.0 2.0 8 12
- 0.230712 0 1 tcp 1040 ------- 0 0.0 2.0 8 12
r 0.230842 1 2 tcp 1040 ------- 0 0.0 2.0 4 6
+ 0.230842 2 1 ack 40 ------- 0 2.0 0.0 4 13
- 0.230842 2 1 ack 40 ------- 0 2.0 0.0 4 13
r 0.231712 0 1 tcp 1040 ------- 0 0.0 2.0 7 11
+ 0.231712 1 2 tcp 1040 ------- 0 0.0 2.0 7 11
r 0.232752 0 1 tcp 1040 ------- 0 0.0 2.0 8 12
+ 0.232752 1 2 tcp 1040 ------- 0 0.0 2.0 8 12
r 0.233011 2 1 ack 40 ------- 0 2.0 0.0 4 13
+ 0.233011 1 0 ack 40 ------- 0 2.0 0.0 4 13
- 0.233011 1 0 ack 40 ------- 0 2.0 0.0 4 13
- 0.233221 1 2 tcp 1040 ------- 0 0.0 2.0 6 9
r 0.234051 1 0 ack 40 ------- 0 2.0 0.0 4 13
+ 0.234051 0 1 tcp 1040 ------- 0 0.0 2.0 9 14
- 0.234051 0 1 tcp 1040 ------- 0 0.0 2.0 9 14
+ 0.234051 0 1 tcp 1040 ------- 0 0.0 2.0 10 15
- 0.235091 0 1 tcp 1040 ------- 0 0.0 2.0 10 15
r 0.235221 1 2 tcp 1040 ------- 0 0.0 2.0 5 8
+ 0.235221 2 1 ack 40 ------- 0 2.0 0.0 5 16
- 0.235221 2 1 ack 40 ------- 0 2.0 0.0 5 16
r 0.236091 0 1 tcp 1040 ------- 0 0.0 2.0 9 14
+ 0.236091 1 2 tcp 1040 ------- 0 0.0 2.0 9 14
r 0.237131 0 1 tcp 1040 ------- 0 0.0 2.0 10 15
+ 0.237131 1 2 tcp 1040 ------- 0 0.0 2.0 10 15
r 0.237389 2 1 ack 40 ------- 0 2.0 0.0 5 16
+ 0.237389 1 0 ack 40 ------- 0 2.0 0.0 5 16
- 0.237389 1 0 ack 40 ------- 0 2.0 0.0 5 16
- 0.2376 1 2 tcp 1040 ------- 0 0.0 2.0 7 11
r 0.238429 1 0 ack 40 ------- 0 2.0 0.0 5 16
+ 0.238429 0 1 tcp 1040 ------- 0 0.0 2.0 11 17
- 0.238429 0 1 tcp 1040 ------- 0 0.0 2.0 11 17
+ 0.238429 0 1 tcp 1040 ------- 0 0.0 2.0 12 18
- 0.239469 0 1 tcp 1040 ------- 0 0.0 2.0 12 18
r 0.2396 1 2 tcp 1040 ------- 0 0.0 2.0 6 9
+ 0.2396 2 1 ack 40 ------- 0 2.0 0.0 6 19
- 0.2396 2 1 ack 40 ------- 0 2.0 0.0 6 19
r 0.240469 0 1 tcp 1040 ------- 0 0.0 2.0 11 17
+ 0.240469 1 2 tcp 1040 ------- 0 0.0 2.0 11 17
r 0.241509 0 1 tcp 1040 ------- 0 0.0 2.0 12 18
+ 0.241509 1 2 tcp 1040 ------- 0 0.0 2.0 12 18
d 0.241509 1 2 tcp 1040 ------- 0 0.0 2.0 12 18
r 0.241768 2 1 ack 40 ------- 0 2.0 0.0 6 19
+ 0.241768 1 0 ack 40 ------- 0 2.0 0.0 6 19
- 0.241768 1 0 ack 40 ------- 0 2.0 0.0 6 19
- 0.241979 1 2 tcp 1040 ------- 0 0.0 2.0 8 12
r 0.242808 1 0 ack 40 ------- 0 2.0 0.0 6 19
+ 0.242808 0 1 tcp 1040 ------- 0 0.0 2.0 13 20
- 0.242808 0 1 tcp 1040 ------- 0 0.0 2.0 13 20
+ 0.242808 0 1 tcp 1040 ------- 0 0.0 2.0 14 21
- 0.243848 0 1 tcp 1040 ------- 0 0.0 2.0 14 21
r 0.243979 1 2 tcp 1040 ------- 0 0.0 2.0 7 11
+ 0.243979 2 1 ack 40 ------- 0 2.0 0.0 7 22
- 0.243979 2 1 ack 40 ------- 0 2.0 0.0 7 22
r 0.244848 0 1 tcp 1040 ------- 0 0.0 2.0 13 20
+ 0.244848 1 2 tcp 1040 ------- 0 0.0 2.0 13 20
r 0.245888 0 1 tcp 1040 ------- 0 0.0 2.0 14 21
+ 0.245888 1 2 tcp 1040 ------- 0 0.0 2.0 14 21
d 0.245888 1 2 tcp 1040 ------- 0 0.0 2.0 14 21
r 0.246147 2 1 ack 40 ------- 0 2.0 0.0 7 22
+ 0.246147 1 0 ack 40 ------- 0 2.0 0.0 7 22
- 0.246147 1 0 ack 40 ------- 0 2.0 0.0 7 22
- 0.246358 1 2 tcp 1040 ------- 0 0.0 2.0 9 14
r 0.247187 1 0 ack 40 ------- 0 2.0 0.0 7 22
+ 0.247187 0 1 tcp 1040 ------- 0 0.0 2.0 15 23
- 0.247187 0 1 tcp 1040 ------- 0 0.0 2.0 15 23
+ 0.247187 0 1 tcp 1040 ------- 0 0.0 2.0 16 24
- 0.248227 0 1 tcp 1040 ------- 0 0.0 2.0 16 24
r 0.248358 1 2 tcp 1040 ------- 0 0.0 2.0 8 12
+ 0.248358 2 1 ack 40 ------- 0 2.0 0.0 8 25
- 0.248358 2 1 ack 40 ------- 0 2.0 0.0 8 25
r 0.249227 0 1 tcp 1040 ------- 0 0.0 2.0 15 23
+ 0.249227 1 2 tcp 1040 ------- 0 0.0 2.0 15 23
r 0.250267 0 1 tcp 1040 ------- 0 0.0 2.0 16 24
+ 0.250267 1 2 tcp 1040 ------- 0 0.0 2.0 16 24
d 0.250267 1 2 tcp 1040 ------- 0 0.0 2.0 16 24
r 0.250526 2 1 ack 40 ------- 0 2.0 0.0 8 25
+ 0.250526 1 0 ack 40 ------- 0 2.0 0.0 8 25
- 0.250526 1 0 ack 40 ------- 0 2.0 0.0 8 25
- 0.250737 1 2 tcp 1040 ------- 0 0.0 2.0 10 15
r 0.251566 1 0 ack 40 ------- 0 2.0 0.0 8 25
+ 0.251566 0 1 tcp 1040 ------- 0 0.0 2.0 17 26
- 0.251566 0 1 tcp 1040 ------- 0 0.0 2.0 17 26
+ 0.251566 0 1 tcp 1040 ------- 0 0.0 2.0 18 27
- 0.252606 0 1 tcp 1040 ------- 0 0.0 2.0 18 27
r 0.252737 1 2 tcp 1040 ------- 0 0.0 2.0 9 14
+ 0.252737 2 1 ack 40 ------- 0 2.0 0.0 9 28
- 0.252737 2 1 ack 40 ------- 0 2.0 0.0 9 28
r 0.253606 0 1 tcp 1040 ------- 0 0.0 2.0 17 26
+ 0.253606 1 2 tcp 1040 ------- 0 0.0 2.0 17 26
r 0.254646 0 1 tcp 1040 ------- 0 0.0 2.0 18 27
+ 0.254646 1 2 tcp 1040 ------- 0 0.0 2.0 18 27
d 0.254646 1 2 tcp 1040 ------- 0 0.0 2.0 18 27
r 0.254905 2 1 ack 40 ------- 0 2.0 0.0 9 28
+ 0.254905 1 0 ack 40 ------- 0 2.0 0.0 9 28
- 0.254905 1 0 ack 40 ------- 0 2.0 0.0 9 28
- 0.255116 1 2 tcp 1040 ------- 0 0.0 2.0 11 17
r 0.255945 1 0 ack 40 ------- 0 2.0 0.0 9 28
+ 0.255945 0 1 tcp 1040 ------- 0 0.0 2.0 19 29
- 0.255945 0 1 tcp 1040 ------- 0 0.0 2.0 19 29
+ 0.255945 0 1 tcp 1040 ------- 0 0.0 2.0 20 30
- 0.256985 0 1 tcp 1040 ------- 0 0.0 2.0 20 30
r 0.257116 1 2 tcp 1040 ------- 0 0.0 2.0 10 15
+ 0.257116 2 1 ack 40 ------- 0 2.0 0.0 10 31
- 0.257116 2 1 ack 40 ------- 0 2.0 0.0 10 31
r 0.257985 0 1 tcp 1040 ------- 0 0.0 2.0 19 29
+ 0.257985 1 2 tcp 1040 ------- 0 0.0 2.0 19 29
r 0.259025 0 1 tcp 1040 ------- 0 0.0 2.0 20 30
+ 0.259025 1 2 tcp 1040 ------- 0 0.0 2.0 20 30
d 0.259025 1 2 tcp 1040 ------- 0 0.0 2.0 20 30
r 0.259284 2 1 ack 40 ------- 0 2.0 0.0 10 31
+ 0.259284 1 0 ack 40 ------- 0 2.0 0.0 10 31
- 0.259284 1 0 ack 40 ------- 0 2.0 0.0 10 31
- 0.259495 1 2 tcp 1040 ------- 0 0.0 2.0 13 20
r 0.260324 1 0 ack 40 ------- 0 2.0 0.0 10 31
+ 0.260324 0 1 tcp 1040 ------- 0 0.0 2.0 21 32
- 0.260324 0 1 tcp 1040 ------- 0 0.0 2.0 21 32
+ 0.260324 0 1 tcp 1040 ------- 0 0.0 2.0 22 33
- 0.261364 0 1 tcp 1040 ------- 0 0.0 2.0 22 33
r 0.261495 1 2 tcp 1040 ------- 0 0.0 2.0 11 17
+ 0.261495 2 1 ack 40 ------- 0 2.0 0.0 11 34
- 0.261495 2 1 ack 40 ------- 0 2.0 0.0 11 34
r 0.262364 0 1 tcp 1040 ------- 0 0.0 2.0 21 32
+ 0.262364 1 2 tcp 1040 ------- 0 0.0 2.0 21 32
r 0.263404 0 1 tcp 1040 ------- 0 0.0 2.0 22 33
+ 0.263404 1 2 tcp 1040 ------- 0 0.0 2.0 22 33
d 0.263404 1 2 tcp 1040 ------- 0 0.0 2.0 22 33
r 0.263663 2 1 ack 40 ------- 0 2.0 0.0 11 34
+ 0.263663 1 0 ack 40 ------- 0 2.0 0.0 11 34
- 0.263663 1 0 ack 40 ------- 0 2.0 0.0 11 34
- 0.263874 1 2 tcp 1040 ------- 0 0.0 2.0 15 23
r 0.264703 1 0 ack 40 ------- 0 2.0 0.0 11 34
+ 0.264703 0 1 tcp 1040 ------- 0 0.0 2.0 23 35
- 0.264703 0 1 tcp 1040 ------- 0 0.0 2.0 23 35
+ 0.264703 0 1 tcp 1040 ------- 0 0.0 2.0 24 36
- 0.265743 0 1 tcp 1040 ------- 0 0.0 2.0 24 36
r 0.265874 1 2 tcp 1040 ------- 0 0.0 2.0 13 20
+ 0.265874 2 1 ack 40 ------- 0 2.0 0.0 11 37
- 0.265874 2 1 ack 40 ------- 0 2.0 0.0 11 37
r 0.266743 0 1 tcp 1040 ------- 0 0.0 2.0 23 35
+ 0.266743 1 2 tcp 1040 ------- 0 0.0 2.0 23 35
r 0.267783 0 1 tcp 1040 ------- 0 0.0 2.0 24 36
+ 0.267783 1 2 tcp 1040 ------- 0 0.0 2.0 24 36
d 0.267783 1 2 tcp 1040 ------- 0 0.0 2.0 24 36
r 0.268042 2 1 ack 40 ------- 0 2.0 0.0 11 37
+ 0.268042 1 0 ack 40 ------- 0 2.0 0.0 11 37
- 0.268042 1 0 ack 40 ------- 0 2.0 0.0 11 37
- 0.268253 1 2 tcp 1040 ------- 0 0.0 2.0 17 26
r 0.269082 1 0 ack 40 ------- 0 2.0 0.0 11 37
+ 0.269082 0 1 tcp 1040 ------- 0 0.0 2.0 25 38
- 0.269082 0 1 tcp 1040 ------- 0 0.0 2.0 25 38
r 0.270253 1 2 tcp 1040 ------- 0 0.0 2.0 15 23
+ 0.270253 2 1 ack 40 ------- 0 2.0 0.0 11 39
- 0.270253 2 1 ack 40 ------- 0 2.0 0.0 11 39
r 0.271122 0 1 tcp 1040 ------- 0 0.0 2.0 25 38
+ 0.271122 1 2 tcp 1040 ------- 0 0.0 2.0 25 38
r 0.272421 2 1 ack 40 ------- 0 2.0 0.0 11 39
+ 0.272421 1 0 ack 40 ------- 0 2.0 0.0 11 39
- 0.272421 1 0 ack 40 ------- 0 2.0 0.0 11 39
- 0.272632 1 2 tcp 1040 ------- 0 0.0 2.0 19 29
r 0.273461 1 0 ack 40 ------- 0 2.0 0.0 11 39
+ 0.273461 0 1 tcp 1040 ------- 0 0.0 2.0 26 40
- 0.273461 0 1 tcp 1040 ------- 0 0.0 2.0 26 40
r 0.274632 1 2 tcp 1040 ------- 0 0.0 2.0 17 26
+ 0.274632 2 1 ack 40 ------- 0 2.0 0.0 11 41
- 0.274632 2 1 ack 40 ------- 0 2.0 0.0 11 41
r 0.275501 0 1 tcp 1040 ------- 0 0.0 2.0 26 40
+ 0.275501 1 2 tcp 1040 ------- 0 0.0 2.0 26 40
r 0.2768 2 1 ack 40 ------- 0 2.0 0.0 11 41
+ 0.2768 1 0 ack 40 ------- 0 2.0 0.0 11 41
- 0.2768 1 0 ack 40 ------- 0 2.0 0.0 11 41
- 0.277011 1 2 tcp 1040 ------- 0 0.0 2.0 21 32
r 0.27784 1 0 ack 40 ------- 0 2.0 0.0 11 41
+ 0.27784 0 1 tcp 1040 ---A--- 0 0.0 2.0 12 42
- 0.27784 0 1 tcp 1040 ---A--- 0 0.0 2.0 12 42
r 0.279011 1 2 tcp 1040 ------- 0 0.0 2.0 19 29
+ 0.279011 2 1 ack 40 ------- 0 2.0 0.0 11 43
- 0.279011 2 1 ack 40 ------- 0 2.0 0.0 11 43
r 0.27988 0 1 tcp 1040 ---A--- 0 0.0 2.0 12 42
+ 0.27988 1 2 tcp 1040 ---A--- 0 0.0 2.0 12 42
r 0.281179 2 1 ack 40 ------- 0 2.0 0.0 11 43
+ 0.281179 1 0 ack 40 ------- 0 2.0 0.0 11 43
- 0.281179 1 0 ack 40 ------- 0 2.0 0.0 11 43
- 0.281389 1 2 tcp 1040 ------- 0 0.0 2.0 23 35
r 0.282219 1 0 ack 40 ------- 0 2.0 0.0 11 43
r 0.283389 1 2 tcp 1040 ------- 0 0.0 2.0 21 32
+ 0.283389 2 1 ack 40 ------- 0 2.0 0.0 11 44
- 0.283389 2 1 ack 40 ------- 0 2.0 0.0 11 44
r 0.285558 2 1 ack 40 ------- 0 2.0 0.0 11 44
+ 0.285558 1 0 ack 40 ------- 0 2.0 0.0 11 44
- 0.285558 1 0 ack 40 ------- 0 2.0 0.0 11 44
- 0.285768 1 2 tcp 1040 ------- 0 0.0 2.0 25 38
r 0.286598 1 0 ack 40 ------- 0 2.0 0.0 11 44
r 0.287768 1 2 tcp 1040 ------- 0 0.0 2.0 23 35
+ 0.287768 2 1 ack 40 ------- 0 2.0 0.0 11 45
- 0.287768 2 1 ack 40 ------- 0 2.0 0.0 11 45
r 0.289937 2 1 ack 40 ------- 0 2.0 0.0 11 45
+ 0.289937 1 0 ack 40 ------- 0 2.0 0.0 11 45
- 0.289937 1 0 ack 40 ------- 0 2.0 0.0 11 45
- 0.290147 1 2 tcp 1040 ------- 0 0.0 2.0 26 40
r 0.290977 1 0 ack 40 ------- 0 2.0 0.0 11 45
r 0.292147 1 2 tcp 1040 ------- 0 0.0 2.0 25 38
+ 0.292147 2 1 ack 40 ------- 0 2.0 0.0 11 46
- 0.292147 2 1 ack 40 ------- 0 2.0 0.0 11 46
r 0.294316 2 1 ack 40 ------- 0 2.0 0.0 11 46
+ 0.294316 1 0 ack 40 ------- 0 2.0 0.0 11 46
- 0.294316 1 0 ack 40 ------- 0 2.0 0.0 11 46
- 0.294526 1 2 tcp 1040 ---A--- 0 0.0 2.0 12 42
r 0.295356 1 0 ack 40 ------- 0 2.0 0.0 11 46
r 0.296526 1 2 tcp 1040 ------- 0 0.0 2.0 26 40
+ 0.296526 2 1 ack 40 ------- 0 2.0 0.0 11 47
- 0.296526 2 1 ack 40 ------- 0 2.0 0.0 11 47
r 0.298695 2 1 ack 40 ------- 0 2.0 0.0 11 47
+ 0.298695 1 0 ack 40 ------- 0 2.0 0.0 11 47
- 0.298695 1 0 ack 40 ------- 0 2.0 0.0 11 47
r 0.299735 1 0 ack 40 ------- 0 2.0 0.0 11 47
r 0.300905 1 2 tcp 1040 ---A--- 0 0.0 2.0 12 42
+ 0.300905 2 1 ack 40 ------- 0 2.0 0.0 13 48
- 0.300905 2 1 ack 40 ------- 0 2.0 0.0 13 48
r 0.303074 2 1 ack 40 ------- 0 2.0 0.0 13 48
+ 0.303074 1 0 ack 40 ------- 0 2.0 0.0 13 48
- 0.303074 1 0 ack 40 ------- 0 2.0 0.0 13 48
r 0.304114 1 0 ack 40 ------- 0 2.0 0.0 13 48
+ 0.304114 0 1 tcp 1040 ------- 0 0.0 2.0 14 49
- 0.304114 0 1 tcp 1040 ------- 0 0.0 2.0 14 49
+ 0.304114 0 1 tcp 1040 ------- 0 0.0 2.0 15 50
- 0.305154 0 1 tcp 1040 ------- 0 0.0 2.0 15 50
r 0.306154 0 1 tcp 1040 ------- 0 0.0 2.0 14 49
+ 0.306154 1 2 tcp 1040 ------- 0 0.0 2.0 14 49
- 0.306154 1 2 tcp 1040 ------- 0 0.0 2.0 14 49
r 0.307194 0 1 tcp 1040 ------- 0 0.0 2.0 15 50
+ 0.307194 1 2 tcp 1040 ------- 0 0.0 2.0 15 50
- 0.310533 1 2 tcp 1040 ------- 0 0.0 2.0 15 50
r 0.312533 1 2 tcp 1040 ------- 0 0.0 2.0 14 49
+ 0.312533 2 1 ack 40 ------- 0 2.0 0.0 15 51
- 0.312533 2 1 ack 40 ------- 0 2.0 0.0 15 51
r 0.314701 2 1 ack 40 ------- 0 2.0 0.0 15 51
+ 0.314701 1 0 ack 40 ------- 0 2.0 0.0 15 51
- 0.314701 1 0 ack 40 ------- 0 2.0 0.0 15 51
r 0.315741 1 0 ack 40 ------- 0 2.0 0.0 15 51
+ 0.315741 0 1 tcp 1040 ------- 0 0.0 2.0 16 52
- 0.315741 0 1 tcp 1040 ------- 0 0.0 2.0 16 52
+ 0.315741 0 1 tcp 1040 ------- 0 0.0 2.0 17 53
+ 0.315741 0 1 tcp 1040 ------- 0 0.0 2.0 18 54
- 0.316781 0 1 tcp 1040 ------- 0 0.0 2.0 17 53
r 0.316912 1 2 tcp 1040 ------- 0 0.0 2.0 15 50
+ 0.316912 2 1 ack 40 ------- 0 2.0 0.0 15 55
- 0.316912 2 1 ack 40 ------- 0 2.0 0.0 15 55
r 0.317781 0 1 tcp 1040 ------- 0 0.0 2.0 16 52
+ 0.317781 1 2 tcp 1040 ------- 0 0.0 2.0 16 52
- 0.317781 1 2 tcp 1040 ------- 0 0.0 2.0 16 52
- 0.317821 0 1 tcp 1040 ------- 0 0.0 2.0 18 54
r 0.318821 0 1 tcp 1040 ------- 0 0.0 2.0 17 53
+ 0.318821 1 2 tcp 1040 ------- 0 0.0 2.0 17 53
r 0.31908 2 1 ack 40 ------- 0 2.0 0.0 15 55
+ 0.31908 1 0 ack 40 ------- 0 2.0 0.0 15 55
- 0.31908 1 0 ack 40 ------- 0 2.0 0.0 15 55
r 0.319861 0 1 tcp 1040 ------- 0 0.0 2.0 18 54
+ 0.319861 1 2 tcp 1040 ------- 0 0.0 2.0 18 54
r 0.32012 1 0 ack 40 ------- 0 2.0 0.0 15 55
+ 0.32012 0 1 tcp 1040 ------- 0 0.0 2.0 19 56
- 0.32012 0 1 tcp 1040 ------- 0 0.0 2.0 19 56
- 0.32216 1 2 tcp 1040 ------- 0 0.0 2.0 17 53
r 0.32216 0 1 tcp 1040 ------- 0 0.0 2.0 19 56
+ 0.32216 1 2 tcp 1040 ------- 0 0.0 2.0 19 56
r 0.32416 1 2 tcp 1040 ------- 0 0.0 2.0 16 52
+ 0.32416 2 1 ack 40 ------- 0 2.0 0.0 17 57
- 0.32416 2 1 ack 40 ------- 0 2.0 0.0 17 57
r 0.326328 2 1 ack 40 ------- 0 2.0 0.0 17 57
+ 0.326328 1 0 ack 40 ------- 0 2.0 0.0 17 57
- 0.326328 1 0 ack 40 ------- 0 2.0 0.0 17 57
- 0.326539 1 2 tcp 1040 ------- 0 0.0 2.0 18 54
r 0.327368 1 0 ack 40 ------- 0 2.0 0.0 17 57
+ 0.327368 0 1 tcp 1040 ------- 0 0.0 2.0 20 58
- 0.327368 0 1 tcp 1040 ------- 0 0.0 2.0 20 58
+ 0.327368 0 1 tcp 1040 ------- 0 0.0 2.0 21 59
- 0.328408 0 1 tcp 1040 ------- 0 0.0 2.0 21 59
r 0.328539 1 2 tcp 1040 ------- 0 0.0 2.0 17 53
+ 0.328539 2 1 ack 40 ------- 0 2.0 0.0 17 60
- 0.328539 2 1 ack 40 ------- 0 2.0 0.0 17 60
r 0.329408 0 1 tcp 1040 ------- 0 0.0 2.0 20 58
+ 0.329408 1 2 tcp 1040 ------- 0 0.0 2.0 20 58
r 0.330448 0 1 tcp 1040 ------- 0 0.0 2.0 21 59
+ 0.330448 1 2 tcp 1040 ------- 0 0.0 2.0 21 59
r 0.330707 2 1 ack 40 ------- 0 2.0 0.0 17 60
+ 0.330707 1 0 ack 40 ------- 0 2.0 0.0 17 60
- 0.330707 1 0 ack 40 ------- 0 2.0 0.0 17 60
- 0.330918 1 2 tcp 1040 ------- 0 0.0 2.0 19 56
r 0.331747 1 0 ack 40 ------- 0 2.0 0.0 17 60
+ 0.331747 0 1 tcp 1040 ------- 0 0.0 2.0 22 61
- 0.331747 0 1 tcp 1040 ------- 0 0.0 2.0 22 61
r 0.332918 1 2 tcp 1040 ------- 0 0.0 2.0 18 54
+ 0.332918 2 1 ack 40 ------- 0 2.0 0.0 19 62
- 0.332918 2 1 ack 40 ------- 0 2.0 0.0 19 62
r 0.333787 0 1 tcp 1040 ------- 0 0.0 2.0 22 61
+ 0.333787 1 2 tcp 1040 ------- 0 0.0 2.0 22 61
r 0.335086 2 1 ack 40 ------- 0 2.0 0.0 19 62
+ 0.335086 1 0 ack 40 ------- 0 2.0 0.0 19 62
- 0.335086 1 0 ack 40 ------- 0 2.0 0.0 19 62
- 0.335297 1 2 tcp 1040 ------- 0 0.0 2.0 20 58
r 0.336126 1 0 ack 40 ------- 0 2.0 0.0 19 62
+ 0.336126 0 1 tcp 1040 ------- 0 0.0 2.0 23 63
- 0.336126 0 1 tcp 1040 ------- 0 0.0 2.0 23 63
+ 0.336126 0 1 tcp 1040 ------- 0 0.0 2.0 24 64
- 0.337166 0 1 tcp 1040 ------- 0 0.0 2.0 24 64
r 0.337297 1 2 tcp 1040 ------- 0 0.0 2.0 19 56
+ 0.337297 2 1 ack 40 ------- 0 2.0 0.0 19 65
- 0.337297 2 1 ack 40 ------- 0 2.0 0.0 19 65
r 0.338166 0 1 tcp 1040 ------- 0 0.0 2.0 23 63
+ 0.338166 1 2 tcp 1040 ------- 0 0.0 2.0 23 63
r 0.339206 0 1 tcp 1040 ------- 0 0.0 2.0 24 64
+ 0.339206 1 2 tcp 1040 ------- 0 0.0 2.0 24 64
r 0.339465 2 1 ack 40 ------- 0 2.0 0.0 19 65
+ 0.339465 1 0 ack 40 ------- 0 2.0 0.0 19 65
- 0.339465 1 0 ack 40 ------- 0 2.0 0.0 19 65
- 0.339676 1 2 tcp 1040 ------- 0 0.0 2.0 21 59
r 0.340505 1 0 ack 40 ------- 0 2.0 0.0 19 65
+ 0.340505 0 1 tcp 1040 ------- 0 0.0 2.0 25 66
- 0.340505 0 1 tcp 1040 ------- 0 0.0 2.0 25 66
r 0.341676 1 2 tcp 1040 ------- 0 0.0 2.0 20 58
+ 0.341676 2 1 ack 40 ------- 0 2.0 0.0 21 67
- 0.341676 2 1 ack 40 ------- 0 2.0 0.0 21 67
r 0.342545 0 1 tcp 1040 ------- 0 0.0 2.0 25 66
+ 0.342545 1 2 tcp 1040 ------- 0 0.0 2.0 25 66
r 0.343844 2 1 ack 40 ------- 0 2.0 0.0 21 67
+ 0.343844 1 0 ack 40 ------- 0 2.0 0.0 21 67
- 0.343844 1 0 ack 40 ------- 0 2.0 0.0 21 67
- 0.344055 1 2 tcp 1040 ------- 0 0.0 2.0 22 61
r 0.344884 1 0 ack 40 ------- 0 2.0 0.0 21 67
+ 0.344884 0 1 tcp 1040 ------- 0 0.0 2.0 26 68
- 0.344884 0 1 tcp 1040 ------- 0 0.0 2.0 26 68
+ 0.344884 0 1 tcp 1040 ------- 0 0.0 2.0 27 69
- 0.345924 0 1 tcp 1040 ------- 0 0.0 2.0 27 69
r 0.346055 1 2 tcp 1040 ------- 0 0.0 2.0 21 59
+ 0.346055 2 1 ack 40 ------- 0 2.0 0.0 21 70
- 0.346055 2 1 ack 40 ------- 0 2.0 0.0 21 70
r 0.346924 0 1 tcp 1040 ------- 0 0.0 2.0 26 68
+ 0.346924 1 2 tcp 1040 ------- 0 0.0 2.0 26 68
r 0.347964 0 1 tcp 1040 ------- 0 0.0 2.0 27 69
+ 0.347964 1 2 tcp 1040 ------- 0 0.0 2.0 27 69
d 0.347964 1 2 tcp 1040 ------- 0 0.0 2.0 27 69
r 0.348223 2 1 ack 40 ------- 0 2.0 0.0 21 70
+ 0.348223 1 0 ack 40 ------- 0 2.0 0.0 21 70
- 0.348223 1 0 ack 40 ------- 0 2.0 0.0 21 70
- 0.348434 1 2 tcp 1040 ------- 0 0.0 2.0 23 63
r 0.349263 1 0 ack 40 ------- 0 2.0 0.0 21 70
+ 0.349263 0 1 tcp 1040 ------- 0 0.0 2.0 28 71
- 0.349263 0 1 tcp 1040 ------- 0 0.0 2.0 28 71
r 0.350434 1 2 tcp 1040 ------- 0 0.0 2.0 22 61
+ 0.350434 2 1 ack 40 ------- 0 2.0 0.0 23 72
- 0.350434 2 1 ack 40 ------- 0 2.0 0.0 23 72
r 0.351303 0 1 tcp 1040 ------- 0 0.0 2.0 28 71
+ 0.351303 1 2 tcp 1040 ------- 0 0.0 2.0 28 71
r 0.352602 2 1 ack 40 ------- 0 2.0 0.0 23 72
+ 0.352602 1 0 ack 40 ------- 0 2.0 0.0 23 72
- 0.352602 1 0 ack 40 ------- 0 2.0 0.0 23 72
- 0.352813 1 2 tcp 1040 ------- 0 0.0 2.0 24 64
r 0.353642 1 0 ack 40 ------- 0 2.0 0.0 23 72
+ 0.353642 0 1 tcp 1040 ------- 0 0.0 2.0 29 73
- 0.353642 0 1 tcp 1040 ------- 0 0.0 2.0 29 73
r 0.354813 1 2 tcp 1040 ------- 0 0.0 2.0 23 63
+ 0.354813 2 1 ack 40 ------- 0 2.0 0.0 23 74
- 0.354813 2 1 ack 40 ------- 0 2.0 0.0 23 74
r 0.355682 0 1 tcp 1040 ------- 0 0.0 2.0 29 73
+ 0.355682 1 2 tcp 1040 ------- 0 0.0 2.0 29 73
r 0.356981 2 1 ack 40 ------- 0 2.0 0.0 23 74
+ 0.356981 1 0 ack 40 ------- 0 2.0 0.0 23 74
- 0.356981 1 0 ack 40 ------- 0 2.0 0.0 23 74
- 0.357192 1 2 tcp 1040 ------- 0 0.0 2.0 25 66
r 0.358021 1 0 ack 40 ------- 0 2.0 0.0 23 74
+ 0.358021 0 1 tcp 1040 ------- 0 0.0 2.0 30 75
- 0.358021 0 1 tcp 1040 ------- 0 0.0 2.0 30 75
r 0.359192 1 2 tcp 1040 ------- 0 0.0 2.0 24 64
+ 0.359192 2 1 ack 40 ------- 0 2.0 0.0 26 76
- 0.359192 2 1 ack 40 ------- 0 2.0 0.0 26 76
r 0.360061 0 1 tcp 1040 ------- 0 0.0 2.0 30 75
+ 0.360061 1 2 tcp 1040 ------- 0 0.0 2.0 30 75
r 0.36136 2 1 ack 40 ------- 0 2.0 0.0 26 76
+ 0.36136 1 0 ack 40 ------- 0 2.0 0.0 26 76
- 0.36136 1 0 ack 40 ------- 0 2.0 0.0 26 76
- 0.361571 1 2 tcp 1040 ------- 0 0.0 2.0 26 68
r 0.3624 1 0 ack 40 ------- 0 2.0 0.0 26 76
+ 0.3624 0 1 tcp 1040 ------- 0 0.0 2.0 31 77
- 0.3624 0 1 tcp 1040 ------- 0 0.0 2.0 31 77
+ 0.3624 0 1 tcp 1040 ------- 0 0.0 2.0 32 78
- 0.36344 0 1 tcp 1040 ------- 0 0.0 2.0 32 78
r 0.363571 1 2 tcp 1040 ------- 0 0.0 2.0 25 66
+ 0.363571 2 1 ack 40 ------- 0 2.0 0.0 26 79
- 0.363571 2 1 ack 40 ------- 0 2.0 0.0 26 79
r 0.36444 0 1 tcp 1040 ------- 0 0.0 2.0 31 77
+ 0.36444 1 2 tcp 1040 ------- 0 0.0 2.0 31 77
r 0.36548 0 1 tcp 1040 ------- 0 0.0 2.0 32 78
+ 0.36548 1 2 tcp 1040 ------- 0 0.0 2.0 32 78
d 0.36548 1 2 tcp 1040 ------- 0 0.0 2.0 32 78
r 0.365739 2 1 ack 40 ------- 0 2.0 0.0 26 79
+ 0.365739 1 0 ack 40 ------- 0 2.0 0.0 26 79
- 0.365739 1 0 ack 40 ------- 0 2.0 0.0 26 79
- 0.365949 1 2 tcp 1040 ------- 0 0.0 2.0 28 71
r 0.366779 1 0 ack 40 ------- 0 2.0 0.0 26 79
+ 0.366779 0 1 tcp 1040 ------- 0 0.0 2.0 33 80
- 0.366779 0 1 tcp 1040 ------- 0 0.0 2.0 33 80
r 0.367949 1 2 tcp 1040 ------- 0 0.0 2.0 26 68
+ 0.367949 2 1 ack 40 ------- 0 2.0 0.0 26 81
- 0.367949 2 1 ack 40 ------- 0 2.0 0.0 26 81
r 0.368819 0 1 tcp 1040 ------- 0 0.0 2.0 33 80
+ 0.368819 1 2 tcp 1040 ------- 0 0.0 2.0 33 80
r 0.370118 2 1 ack 40 ------- 0 2.0 0.0 26 81
+ 0.370118 1 0 ack 40 ------- 0 2.0 0.0 26 81
- 0.370118 1 0 ack 40 ------- 0 2.0 0.0 26 81
- 0.370328 1 2 tcp 1040 ------- 0 0.0 2.0 29 73
r 0.371158 1 0 ack 40 ------- 0 2.0 0.0 26 81
+ 0.371158 0 1 tcp 1040 ------- 0 0.0 2.0 34 82
- 0.371158 0 1 tcp 1040 ------- 0 0.0 2.0 34 82
r 0.372328 1 2 tcp 1040 ------- 0 0.0 2.0 28 71
+ 0.372328 2 1 ack 40 ------- 0 2.0 0.0 26 83
- 0.372328 2 1 ack 40 ------- 0 2.0 0.0 26 83
r 0.373198 0 1 tcp 1040 ------- 0 0.0 2.0 34 82
+ 0.373198 1 2 tcp 1040 ------- 0 0.0 2.0 34 82
r 0.374497 2 1 ack 40 ------- 0 2.0 0.0 26 83
+ 0.374497 1 0 ack 40 ------- 0 2.0 0.0 26 83
- 0.374497 1 0 ack 40 ------- 0 2.0 0.0 26 83
- 0.374707 1 2 tcp 1040 ------- 0 0.0 2.0 30 75
r 0.375537 1 0 ack 40 ------- 0 2.0 0.0 26 83
r 0.376707 1 2 tcp 1040 ------- 0 0.0 2.0 29 73
+ 0.376707 2 1 ack 40 ------- 0 2.0 0.0 26 84
- 0.376707 2 1 ack 40 ------- 0 2.0 0.0 26 84
r 0.378876 2 1 ack 40 ------- 0 2.0 0.0 26 84
+ 0.378876 1 0 ack 40 ------- 0 2.0 0.0 26 84
- 0.378876 1 0 ack 40 ------- 0 2.0 0.0 26 84
- 0.379086 1 2 tcp 1040 ------- 0 0.0 2.0 31 77
r 0.379916 1 0 ack 40 ------- 0 2.0 0.0 26 84
r 0.381086 1 2 tcp 1040 ------- 0 0.0 2.0 30 75
+ 0.381086 2 1 ack 40 ------- 0 2.0 0.0 26 85
- 0.381086 2 1 ack 40 ------- 0 2.0 0.0 26 85
r 0.383255 2 1 ack 40 ------- 0 2.0 0.0 26 85
+ 0.383255 1 0 ack 40 ------- 0 2.0 0.0 26 85
- 0.383255 1 0 ack 40 ------- 0 2.0 0.0 26 85
- 0.383465 1 2 tcp 1040 ------- 0 0.0 2.0 33 80
r 0.384295 1 0 ack 40 ------- 0 2.0 0.0 26 85
r 0.385465 1 2 tcp 1040 ------- 0 0.0 2.0 31 77
+ 0.385465 2 1 ack 40 ------- 0 2.0 0.0 26 86
- 0.385465 2 1 ack 40 ------- 0 2.0 0.0 26 86
r 0.387634 2 1 ack 40 ------- 0 2.0 0.0 26 86
+ 0.387634 1 0 ack 40 ------- 0 2.0 0.0 26 86
- 0.387634 1 0 ack 40 ------- 0 2.0 0.0 26 86
- 0.387844 1 2 tcp 1040 ------- 0 0.0 2.0 34 82
r 0.388674 1 0 ack 40 ------- 0 2.0 0.0 26 86
r 0.389844 1 2 tcp 1040 ------- 0 0.0 2.0 33 80
+ 0.389844 2 1 ack 40 ------- 0 2.0 0.0 26 87
- 0.389844 2 1 ack 40 ------- 0 2.0 0.0 26 87
r 0.392013 2 1 ack 40 ------- 0 2.0 0.0 26 87
+ 0.392013 1 0 ack 40 ------- 0 2.0 0.0 26 87
- 0.392013 1 0 ack 40 ------- 0 2.0 0.0 26 87
r 0.393053 1 0 ack 40 ------- 0 2.0 0.0 26 87
r 0.394223 1 2 tcp 1040 ------- 0 0.0 2.0 34 82
+ 0.394223 2 1 ack 40 ------- 0 2.0 0.0 26 88
- 0.394223 2 1 ack 40 ------- 0 2.0 0.0 26 88
r 0.396392 2 1 ack 40 ------- 0 2.0 0.0 26 88
+ 0.396392 1 0 ack 40 ------- 0 2.0 0.0 26 88
- 0.396392 1 0 ack 40 ------- 0 2.0 0.0 26 88
r 0.397432 1 0 ack 40 ------- 0 2.0 0.0 26 88
+ 0.5624 0 1 tcp 1040 ---A--- 0 0.0 2.0 27 89
- 0.5624 0 1 tcp 1040 ---A--- 0 0.0 2.0 27 89
r 0.56444 0 1 tcp 1040 ---A--- 0 0.0 2.0 27 89
+ 0.56444 1 2 tcp 1040 ---A--- 0 0.0 2.0 27 89
- 0.56444 1 2 tcp 1040 ---A--- 0 0.0 2.0 27 89
r 0.570819 1 2 tcp 1040 ---A--- 0 0.0 2.0 27 89
+ 0.570819 2 1 ack 40 ------- 0 2.0 0.0 31 90
- 0.570819 2 1 ack 40 ------- 0 2.0 0.0 31 90
r 0.572987 2 1 ack 40 ------- 0 2.0 0.0 31 90
+ 0.572987 1 0 ack 40 ------- 0 2.0 0.0 31 90
- 0.572987 1 0 ack 40 ------- 0 2.0 0.0 31 90
r 0.574027 1 0 ack 40 ------- 0 2.0 0.0 31 90
+ 0.574027 0 1 tcp 1040 ------- 0 0.0 2.0 32 91
- 0.574027 0 1 tcp 1040 ------- 0 0.0 2.0 32 91
+ 0.574027 0 1 tcp 1040 ------- 0 0.0 2.0 33 92
- 0.575067 0 1 tcp 1040 ------- 0 0.0 2.0 33 92
r 0.576067 0 1 tcp 1040 ------- 0 0.0 2.0 32 91
+ 0.576067 1 2 tcp 1040 ------- 0 0.0 2.0 32 91
- 0.576067 1 2 tcp 1040 ------- 0 0.0 2.0 32 91
r 0.577107 0 1 tcp 1040 ------- 0 0.0 2.0 33 92
+ 0.577107 1 2 tcp 1040 ------- 0 0.0 2.0 33 92
- 0.580446 1 2 tcp 1040 ------- 0 0.0 2.0 33 92
r 0.582446 1 2 tcp 1040 ------- 0 0.0 2.0 32 91
+ 0.582446 2 1 ack 40 ------- 0 2.0 0.0 34 93
- 0.582446 2 1 ack 40 ------- 0 2.0 0.0 34 93
r 0.584615 2 1 ack 40 ------- 0 2.0 0.0 34 93
+ 0.584615 1 0 ack 40 ------- 0 2.0 0.0 34 93
- 0.584615 1 0 ack 40 ------- 0 2.0 0.0 34 93
r 0.585655 1 0 ack 40 ------- 0 2.0 0.0 34 93
+ 0.585655 0 1 tcp 1040 ------- 0 0.0 2.0 35 94
- 0.585655 0 1 tcp 1040 ------- 0 0.0 2.0 35 94
+ 0.585655 0 1 tcp 1040 ------- 0 0.0 2.0 36 95
+ 0.585655 0 1 tcp 1040 ------- 0 0.0 2.0 37 96
- 0.586695 0 1 tcp 1040 ------- 0 0.0 2.0 36 95
r 0.586825 1 2 tcp 1040 ------- 0 0.0 2.0 33 92
+ 0.586825 2 1 ack 40 ------- 0 2.0 0.0 34 97
- 0.586825 2 1 ack 40 ------- 0 2.0 0.0 34 97
r 0.587695 0 1 tcp 1040 ------- 0 0.0 2.0 35 94
+ 0.587695 1 2 tcp 1040 ------- 0 0.0 2.0 35 94
- 0.587695 1 2 tcp 1040 ------- 0 0.0 2.0 35 94
- 0.587735 0 1 tcp 1040 ------- 0 0.0 2.0 37 96
r 0.588735 0 1 tcp 1040 ------- 0 0.0 2.0 36 95
+ 0.588735 1 2 tcp 1040 ------- 0 0.0 2.0 36 95
r 0.588994 2 1 ack 40 ------- 0 2.0 0.0 34 97
+ 0.588994 1 0 ack 40 ------- 0 2.0 0.0 34 97
- 0.588994 1 0 ack 40 ------- 0 2.0 0.0 34 97
r 0.589775 0 1 tcp 1040 ------- 0 0.0 2.0 37 96
+ 0.589775 1 2 tcp 1040 ------- 0 0.0 2.0 37 96
r 0.590034 1 0 ack 40 ------- 0 2.0 0.0 34 97
+ 0.590034 0 1 tcp 1040 ------- 0 0.0 2.0 38 98
- 0.590034 0 1 tcp 1040 ------- 0 0.0 2.0 38 98
- 0.592074 1 2 tcp 1040 ------- 0 0.0 2.0 36 95
r 0.592074 0 1 tcp 1040 ------- 0 0.0 2.0 38 98
+ 0.592074 1 2 tcp 1040 ------- 0 0.0 2.0 38 98
r 0.594074 1 2 tcp 1040 ------- 0 0.0 2.0 35 94
+ 0.594074 2 1 ack 40 ------- 0 2.0 0.0 35 99
- 0.594074 2 1 ack 40 ------- 0 2.0 0.0 35 99
r 0.596242 2 1 ack 40 ------- 0 2.0 0.0 35 99
+ 0.596242 1 0 ack 40 ------- 0 2.0 0.0 35 99
- 0.596242 1 0 ack 40 ------- 0 2.0 0.0 35 99
- 0.596453 1 2 tcp 1040 ------- 0 0.0 2.0 37 96
r 0.597282 1 0 ack 40 ------- 0 2.0 0.0 35 99
r 0.598453 1 2 tcp 1040 ------- 0 0.0 2.0 36 95
+ 0.598453 2 1 ack 40 ------- 0 2.0 0.0 36 100
- 0.598453 2 1 ack 40 ------- 0 2.0 0.0 36 100
r 0.600621 2 1 ack 40 ------- 0 2.0 0.0 36 100
+ 0.600621 1 0 ack 40 ------- 0 2.0 0.0 36 100
- 0.600621 1 0 ack 40 ------- 0 2.0 0.0 36 100
- 0.600832 1 2 tcp 1040 ------- 0 0.0 2.0 38 98
r 0.601661 1 0 ack 40 ------- 0 2.0 0.0 36 100
+ 0.601661 0 1 tcp 1040 ------- 0 0.0 2.0 39 101
- 0.601661 0 1 tcp 1040 ------- 0 0.0 2.0 39 101
r 0.602832 1 2 tcp 1040 ------- 0 0.0 2.0 37 96
+ 0.602832 2 1 ack 40 ------- 0 2.0 0.0 37 102
- 0.602832 2 1 ack 40 ------- 0 2.0 0.0 37 102
r 0.603701 0 1 tcp 1040 ------- 0 0.0 2.0 39 101
+ 0.603701 1 2 tcp 1040 ------- 0 0.0 2.0 39 101
r 0.605 2 1 ack 40 ------- 0 2.0 0.0 37 102
+ 0.605 1 0 ack 40 ------- 0 2.0 0.0 37 102
- 0.605 1 0 ack 40 ------- 0 2.0 0.0 37 102
- 0.605211 1 2 tcp 1040 ------- 0 0.0 2.0 39 101
r 0.60604 1 0 ack 40 ------- 0 2.0 0.0 37 102
+ 0.60604 0 1 tcp 1040 ------- 0 0.0 2.0 40 103
- 0.60604 0 1 tcp 1040 ------- 0 0.0 2.0 40 103
r 0.607211 1 2 tcp 1040 ------- 0 0.0 2.0 38 98
+ 0.607211 2 1 ack 40 ------- 0 2.0 0.0 38 104
- 0.607211 2 1 ack 40 ------- 0 2.0 0.0 38 104
r 0.60808 0 1 tcp 1040 ------- 0 0.0 2.0 40 103
+ 0.60808 1 2 tcp 1040 ------- 0 0.0 2.0 40 103
r 0.609379 2 1 ack 40 ------- 0 2.0 0.0 38 104
+ 0.609379 1 0 ack 40 ------- 0 2.0 0.0 38 104
- 0.609379 1 0 ack 40 ------- 0 2.0 0.0 38 104
- 0.609589 1 2 tcp 1040 ------- 0 0.0 2.0 40 103
r 0.610419 1 0 ack 40 ------- 0 2.0 0.0 38 104
+ 0.610419 0 1 tcp 1040 ------- 0 0.0 2.0 41 105
- 0.610419 0 1 tcp 1040 ------- 0 0.0 2.0 41 105
+ 0.610419 0 1 tcp 1040 ------- 0 0.0 2.0 42 106
- 0.611459 0 1 tcp 1040 ------- 0 0.0 2.0 42 106
r 0.611589 1 2 tcp 1040 ------- 0 0.0 2.0 39 101
+ 0.611589 2 1 ack 40 ------- 0 2.0 0.0 39 107
- 0.611589 2 1 ack 40 ------- 0 2.0 0.0 39 107
r 0.612459 0 1 tcp 1040 ------- 0 0.0 2.0 41 105
+ 0.612459 1 2 tcp 1040 ------- 0 0.0 2.0 41 105
r 0.613499 0 1 tcp 1040 ------- 0 0.0 2.0 42 106
+ 0.613499 1 2 tcp 1040 ------- 0 0.0 2.0 42 106
r 0.613758 2 1 ack 40 ------- 0 2.0 0.0 39 107
+ 0.613758 1 0 ack 40 ------- 0 2.0 0.0 39 107
- 0.613758 1 0 ack 40 ------- 0 2.0 0.0 39 107
- 0.613968 1 2 tcp 1040 ------- 0 0.0 2.0 41 105
r 0.614798 1 0 ack 40 ------- 0 2.0 0.0 39 107
+ 0.614798 0 1 tcp 1040 ------- 0 0.0 2.0 43 108
- 0.614798 0 1 tcp 1040 ------- 0 0.0 2.0 43 108
r 0.615968 1 2 tcp 1040 ------- 0 0.0 2.0 40 103
+ 0.615968 2 1 ack 40 ------- 0 2.0 0.0 40 109
- 0.615968 2 1 ack 40 ------- 0 2.0 0.0 40 109
r 0.616838 0 1 tcp 1040 ------- 0 0.0 2.0 43 108