n -t 0 -s 0 -S DLABEL -l "TCP Source" -L ""
n -t 0 -s 1 -S DLABEL -l "UDP Source" -L ""
n -t 0 -s 2 -S DLABEL -l "UDP Sink" -L ""
n -t 0 -s 3 -S DLABEL -l "TCP Sink" -L ""
V -t * -v 1.0a5 -a 0
A -t * -n 1 -p 0 -o 0x7fffffff -c 30 -a 1
A -t * -h 1 -m 1073741823 -s 0
n -t * -a 4 -s 4 -S UP -v circle -c black -i black
n -t * -a 0 -s 0 -S UP -v circle -c black -i black
n -t * -a 5 -s 5 -S UP -v circle -c black -i black
n -t * -a 1 -s 1 -S UP -v circle -c black -i black
n -t * -a 2 -s 2 -S UP -v circle -c black -i black
n -t * -a 3 -s 3 -S UP -v circle -c black -i black
l -t * -s 0 -d 4 -S UP -r 1000000 -D 0.01 -c black
l -t * -s 1 -d 4 -S UP -r 1000000 -D 0.01 -c black
l -t * -s 4 -d 5 -S UP -r 200000 -D 0.01 -c black
l -t * -s 5 -d 2 -S UP -r 1000000 -D 0.01 -c black
l -t * -s 5 -d 3 -S UP -r 1000000 -D 0.01 -c black
+ -t 0.2 -s 0 -d 4 -p tcp -e 40 -c 0 -i 0 -a 0 -x {0.0 3.0 0 ------- null}
- -t 0.2 -s 0 -d 4 -p tcp -e 40 -c 0 -i 0 -a 0 -x {0.0 3.0 0 ------- null}
h -t 0.2 -s 0 -d 4 -p tcp -e 40 -c 0 -i 0 -a 0 -x {0.0 3.0 -1 ------- null}
+ -t 0.2 -s 1 -d 4 -p cbr -e 210 -c 0 -i 1 -a 0 -x {1.0 2.0 0 ------- null}
- -t 0.2 -s 1 -d 4 -p cbr -e 210 -c 0 -i 1 -a 0 -x {1.0 2.0 0 ------- null}
h -t 0.2 -s 1 -d 4 -p cbr -e 210 -c 0 -i 1 -a 0 -x {1.0 2.0 -1 ------- null}
+ -t 0.20375 -s 1 -d 4 -p cbr -e 210 -c 0 -i 2 -a 0 -x {1.0 2.0 1 ------- null}
- -t 0.20375 -s 1 -d 4 -p cbr -e 210 -c 0 -i 2 -a 0 -x {1.0 2.0 1 ------- null}
h -t 0.20375 -s 1 -d 4 -p cbr -e 210 -c 0 -i 2 -a 0 -x {1.0 2.0 -1 ------- null}
+ -t 0.2075 -s 1 -d 4 -p cbr -e 210 -c 0 -i 3 -a 0 -x {1.0 2.0 2 ------- null}
- -t 0.2075 -s 1 -d 4 -p cbr -e 210 -c 0 -i 3 -a 0 -x {1.0 2.0 2 ------- null}
h -t 0.2075 -s 1 -d 4 -p cbr -e 210 -c 0 -i 3 -a 0 -x {1.0 2.0 -1 ------- null}
r -t 0.21032 -s 0 -d 4 -p tcp -e 40 -c 0 -i 0 -a 0 -x {0.0 3.0 0 ------- null}
+ -t 0.21032 -s 4 -d 5 -p tcp -e 40 -c 0 -i 0 -a 0 -x {0.0 3.0 0 ------- null}
- -t 0.21032 -s 4 -d 5 -p tcp -e 40 -c 0 -i 0 -a 0 -x {0.0 3.0 0 ------- null}
h -t 0.21032 -s 4 -d 5 -p tcp -e 40 -c 0 -i 0 -a 0 -x {0.0 3.0 -1 ------- null}
+ -t 0.21125 -s 1 -d 4 -p cbr -e 210 -c 0 -i 4 -a 0 -x {1.0 2.0 3 ------- null}
- -t 0.21125 -s 1 -d 4 -p cbr -e 210 -c 0 -i 4 -a 0 -x {1.0 2.0 3 ------- null}
h -t 0.21125 -s 1 -d 4 -p cbr -e 210 -c 0 -i 4 -a 0 -x {1.0 2.0 -1 ------- null}
r -t 0.21168 -s 1 -d 4 -p cbr -e 210 -c 0 -i 1 -a 0 -x {1.0 2.0 0 ------- null}
+ -t 0.21168 -s 4 -d 5 -p cbr -e 210 -c 0 -i 1 -a 0 -x {1.0 2.0 0 ------- null}
- -t 0.21192 -s 4 -d 5 -p cbr -e 210 -c 0 -i 1 -a 0 -x {1.0 2.0 0 ------- null}
h -t 0.21192 -s 4 -d 5 -p cbr -e 210 -c 0 -i 1 -a 0 -x {1.0 2.0 -1 ------- null}
+ -t 0.215 -s 1 -d 4 -p cbr -e 210 -c 0 -i 5 -a 0 -x {1.0 2.0 4 ------- null}
- -t 0.215 -s 1 -d 4 -p cbr -e 210 -c 0 -i 5 -a 0 -x {1.0 2.0 4 ------- null}
h -t 0.215 -s 1 -d 4 -p cbr -e 210 -c 0 -i 5 -a 0 -x {1.0 2.0 -1 ------- null}
r -t 0.21543 -s 1 -d 4 -p cbr -e 210 -c 0 -i 2 -a 0 -x {1.0 2.0 1 ------- null}
+ -t 0.21543 -s 4 -d 5 -p cbr -e 210 -c 0 -i 2 -a 0 -x {1.0 2.0 1 ------- null}
+ -t 0.21875 -s 1 -d 4 -p cbr -e 210 -c 0 -i 6 -a 0 -x {1.0 2.0 5 ------- null}
- -t 0.21875 -s 1 -d 4 -p cbr -e 210 -c 0 -i 6 -a 0 -x {1.0 2.0 5 ------- null}
h -t 0.21875 -s 1 -d 4 -p cbr -e 210 -c 0 -i 6 -a 0 -x {1.0 2.0 -1 ------- null}
r -t 0.21918 -s 1 -d 4 -p cbr -e 210 -c 0 -i 3 -a 0 -x {1.0 2.0 2 ------- null}
+ -t 0.21918 -s 4 -d 5 -p cbr -e 210 -c 0 -i 3 -a 0 -x {1.0 2.0 2 ------- null}
- -t 0.22032 -s 4 -d 5 -p cbr -e 210 -c 0 -i 2 -a 0 -x {1.0 2.0 1 ------- null}
h -t 0.22032 -s 4 -d 5 -p cbr -e 210 -c 0 -i 2 -a 0 -x {1.0 2.0 -1 ------- null}
r -t 0.22192 -s 4 -d 5 -p tcp -e 40 -c 0 -i 0 -a 0 -x {0.0 3.0 0 ------- null}
+ -t 0.22192 -s 5 -d 3 -p tcp -e 40 -c 0 -i 0 -a 0 -x {0.0 3.0 0 ------- null}
- -t 0.22192 -s 5 -d 3 -p tcp -e 40 -c 0 -i 0 -a 0 -x {0.0 3.0 0 ------- null}
h -t 0.22192 -s 5 -d 3 -p tcp -e 40 -c 0 -i 0 -a 0 -x {0.0 3.0 -1 ------- null}
+ -t 0.2225 -s 1 -d 4 -p cbr -e 210 -c 0 -i 7 -a 0 -x {1.0 2.0 6 ------- null}
- -t 0.2225 -s 1 -d 4 -p cbr -e 210 -c 0 -i 7 -a 0 -x {1.0 2.0 6 ------- null}
h -t 0.2225 -s 1 -d 4 -p cbr -e 210 -c 0 -i 7 -a 0 -x {1.0 2.0 -1 ------- null}
r -t 0.22293 -s 1 -d 4 -p cbr -e 210 -c 0 -i 4 -a 0 -x {1.0 2.0 3 ------- null}
+ -t 0.22293 -s 4 -d 5 -p cbr -e 210 -c 0 -i 4 -a 0 -x {1.0 2.0 3 ------- null}
+ -t 0.22625 -s 1 -d 4 -p cbr -e 210 -c 0 -i 8 -a 0 -x {1.0 2.0 7 ------- null}
- -t 0.22625 -s 1 -d 4 -p cbr -e 210 -c 0 -i 8 -a 0 -x {1.0 2.0 7 ------- null}
h -t 0.22625 -s 1 -d 4 -p cbr -e 210 -c 0 -i 8 -a 0 -x {1.0 2.0 -1 ------- null}
r -t 0.22668 -s 1 -d 4 -p cbr -e 210 -c 0 -i 5 -a 0 -x {1.0 2.0 4 ------- null}
+ -t 0.22668 -s 4 -d 5 -p cbr -e 210 -c 0 -i 5 -a 0 -x {1.0 2.0 4 ------- null}
- -t 0.22872 -s 4 -d 5 -p cbr -e 210 -c 0 -i 3 -a 0 -x {1.0 2.0 2 ------- null}
h -t 0.22872 -s 4 -d 5 -p cbr -e 210 -c 0 -i 3 -a 0 -x {1.0 2.0 -1 ------- null}
+ -t 0.23 -s 1 -d 4 -p cbr -e 210 -c 0 -i 9 -a 0 -x {1.0 2.0 8 ------- null}
- -t 0.23 -s 1 -d 4 -p cbr -e 210 -c 0 -i 9 -a 0 -x {1.0 2.0 8 ------- null}
h -t 0.23 -s 1 -d 4 -p cbr -e 210 -c 0 -i 9 -a 0 -x {1.0 2.0 -1 ------- null}
r -t 0.23032 -s 4 -d 5 -p cbr -e 210 -c 0 -i 1 -a 0 -x {1.0 2.0 0 ------- null}
+ -t 0.23032 -s 5 -d 2 -p cbr -e 210 -c 0 -i 1 -a 0 -x {1.0 2.0 0 ------- null}
- -t 0.23032 -s 5 -d 2 -p cbr -e 210 -c 0 -i 1 -a 0 -x {1.0 2.0 0 ------- null}
h -t 0.23032 -s 5 -d 2 -p cbr -e 210 -c 0 -i 1 -a 0 -x {1.0 2.0 -1 ------- null}
r -t 0.23043 -s 1 -d 4 -p cbr -e 210 -c 0 -i 6 -a 0 -x {1.0 2.0 5 ------- null}
+ -t 0.23043 -s 4 -d 5 -p cbr -e 210 -c 0 -i 6 -a 0 -x {1.0 2.0 5 ------- null}
r -t 0.23224 -s 5 -d 3 -p tcp -e 40 -c 0 -i 0 -a 0 -x {0.0 3.0 0 ------- null}
+ -t 0.23224 -s 3 -d 5 -p ack -e 40 -c 0 -i 10 -a 0 -x {3.0 0.0 0 ------- null}
- -t 0.23224 -s 3 -d 5 -p ack -e 40 -c 0 -i 10 -a 0 -x {3.0 0.0 0 ------- null}
h -t 0.23224 -s 3 -d 5 -p ack -e 40 -c 0 -i 10 -a 0 -x {3.0 0.0 -1 ------- null}
+ -t 0.23375 -s 1 -d 4 -p cbr -e 210 -c 0 -i 11 -a 0 -x {1.0 2.0 9 ------- null}
- -t 0.23375 -s 1 -d 4 -p cbr -e 210 -c 0 -i 11 -a 0 -x {1.0 2.0 9 ------- null}
h -t 0.23375 -s 1 -d 4 -p cbr -e 210 -c 0 -i 11 -a 0 -x {1.0 2.0 -1 ------- null}
r -t 0.23418 -s 1 -d 4 -p cbr -e 210 -c 0 -i 7 -a 0 -x {1.0 2.0 6 ------- null}
+ -t 0.23418 -s 4 -d 5 -p cbr -e 210 -c 0 -i 7 -a 0 -x {1.0 2.0 6 ------- null}
- -t 0.23712 -s 4 -d 5 -p cbr -e 210 -c 0 -i 4 -a 0 -x {1.0 2.0 3 ------- null}
h -t 0.23712 -s 4 -d 5 -p cbr -e 210 -c 0 -i 4 -a 0 -x {1.0 2.0 -1 ------- null}
+ -t 0.2375 -s 1 -d 4 -p cbr -e 210 -c 0 -i 12 -a 0 -x {1.0 2.0 10 ------- null}
- -t 0.2375 -s 1 -d 4 -p cbr -e 210 -c 0 -i 12 -a 0 -x {1.0 2.0 10 ------- null}
h -t 0.2375 -s 1 -d 4 -p cbr -e 210 -c 0 -i 12 -a 0 -x {1.0 2.0 -1 ------- null}
r -t 0.23793 -s 1 -d 4 -p cbr -e 210 -c 0 -i 8 -a 0 -x {1.0 2.0 7 ------- null}
+ -t 0.23793 -s 4 -d 5 -p cbr -e 210 -c 0 -i 8 -a 0 -x {1.0 2.0 7 ------- null}
r -t 0.23872 -s 4 -d 5 -p cbr -e 210 -c 0 -i 2 -a 0 -x {1.0 2.0 1 ------- null}
+ -t 0.23872 -s 5 -d 2 -p cbr -e 210 -c 0 -i 2 -a 0 -x {1.0 2.0 1 ------- null}
- -t 0.23872 -s 5 -d 2 -p cbr -e 210 -c 0 -i 2 -a 0 -x {1.0 2.0 1 ------- null}
h -t 0.23872 -s 5 -d 2 -p cbr -e 210 -c 0 -i 2 -a 0 -x {1.0 2.0 -1 ------- null}
+ -t 0.24125 -s 1 -d 4 -p cbr -e 210 -c 0 -i 13 -a 0 -x {1.0 2.0 11 ------- null}
- -t 0.24125 -s 1 -d 4 -p cbr -e 210 -c 0 -i 13 -a 0 -x {1.0 2.0 11 ------- null}
h -t 0.24125 -s 1 -d 4 -p cbr -e 210 -c 0 -i 13 -a 0 -x {1.0 2.0 -1 ------- null}
r -t 0.24168 -s 1 -d 4 -p cbr -e 210 -c 0 -i 9 -a 0 -x {1.0 2.0 8 ------- null}
+ -t 0.24168 -s 4 -d 5 -p cbr -e 210 -c 0 -i 9 -a 0 -x {1.0 2.0 8 ------- null}
r -t 0.242 -s 5 -d 2 -p cbr -e 210 -c 0 -i 1 -a 0 -x {1.0 2.0 0 ------- null}
r -t 0.24256 -s 3 -d 5 -p ack -e 40 -c 0 -i 10 -a 0 -x {3.0 0.0 0 ------- null}
+ -t 0.24256 -s 5 -d 4 -p ack -e 40 -c 0 -i 10 -a 0 -x {3.0 0.0 0 ------- null}
- -t 0.24256 -s 5 -d 4 -p ack -e 40 -c 0 -i 10 -a 0 -x {3.0 0.0 0 ------- null}
h -t 0.24256 -s 5 -d 4 -p ack -e 40 -c 0 -i 10 -a 0 -x {3.0 0.0 -1 ------- null}
+ -t 0.245 -s 1 -d 4 -p cbr -e 210 -c 0 -i 14 -a 0 -x {1.0 2.0 12 ------- null}
- -t 0.245 -s 1 -d 4 -p cbr -e 210 -c 0 -i 14 -a 0 -x {1.0 2.0 12 ------- null}
h -t 0.245 -s 1 -d 4 -p cbr -e 210 -c 0 -i 14 -a 0 -x {1.0 2.0 -1 ------- null}
r -t 0.24543 -s 1 -d 4 -p cbr -e 210 -c 0 -i 11 -a 0 -x {1.0 2.0 9 ------- null}
+ -t 0.24543 -s 4 -d 5 -p cbr -e 210 -c 0 -i 11 -a 0 -x {1.0 2.0 9 ------- null}
- -t 0.24552 -s 4 -d 5 -p cbr -e 210 -c 0 -i 5 -a 0 -x {1.0 2.0 4 ------- null}
h -t 0.24552 -s 4 -d 5 -p cbr -e 210 -c 0 -i 5 -a 0 -x {1.0 2.0 -1 ------- null}
r -t 0.24712 -s 4 -d 5 -p cbr -e 210 -c 0 -i 3 -a 0 -x {1.0 2.0 2 ------- null}
+ -t 0.24712 -s 5 -d 2 -p cbr -e 210 -c 0 -i 3 -a 0 -x {1.0 2.0 2 ------- null}
- -t 0.24712 -s 5 -d 2 -p cbr -e 210 -c 0 -i 3 -a 0 -x {1.0 2.0 2 ------- null}
h -t 0.24712 -s 5 -d 2 -p cbr -e 210 -c 0 -i 3 -a 0 -x {1.0 2.0 -1 ------- null}
+ -t 0.24875 -s 1 -d 4 -p cbr -e 210 -c 0 -i 15 -a 0 -x {1.0 2.0 13 ------- null}
- -t 0.24875 -s 1 -d 4 -p cbr -e 210 -c 0 -i 15 -a 0 -x {1.0 2.0 13 ------- null}
h -t 0.24875 -s 1 -d 4 -p cbr -e 210 -c 0 -i 15 -a 0 -x {1.0 2.0 -1 ------- null}
r -t 0.24918 -s 1 -d 4 -p cbr -e 210 -c 0 -i 12 -a 0 -x {1.0 2.0 10 ------- null}
+ -t 0.24918 -s 4 -d 5 -p cbr -e 210 -c 0 -i 12 -a 0 -x {1.0 2.0 10 ------- null}
r -t 0.2504 -s 5 -d 2 -p cbr -e 210 -c 0 -i 2 -a 0 -x {1.0 2.0 1 ------- null}
+ -t 0.2525 -s 1 -d 4 -p cbr -e 210 -c 0 -i 16 -a 0 -x {1.0 2.0 14 ------- null}
- -t 0.2525 -s 1 -d 4 -p cbr -e 210 -c 0 -i 16 -a 0 -x {1.0 2.0 14 ------- null}
h -t 0.2525 -s 1 -d 4 -p cbr -e 210 -c 0 -i 16 -a 0 -x {1.0 2.0 -1 ------- null}
r -t 0.25293 -s 1 -d 4 -p cbr -e 210 -c 0 -i 13 -a 0 -x {1.0 2.0 11 ------- null}
+ -t 0.25293 -s 4 -d 5 -p cbr -e 210 -c 0 -i 13 -a 0 -x {1.0 2.0 11 ------- null}
- -t 0.25392 -s 4 -d 5 -p cbr -e 210 -c 0 -i 6 -a 0 -x {1.0 2.0 5 ------- null}
h -t 0.25392 -s 4 -d 5 -p cbr -e 210 -c 0 -i 6 -a 0 -x {1.0 2.0 -1 ------- null}
r -t 0.25416 -s 5 -d 4 -p ack -e 40 -c 0 -i 10 -a 0 -x {3.0 0.0 0 ------- null}
+ -t 0.25416 -s 4 -d 0 -p ack -e 40 -c 0 -i 10 -a 0 -x {3.0 0.0 0 ------- null}
- -t 0.25416 -s 4 -d 0 -p ack -e 40 -c 0 -i 10 -a 0 -x {3.0 0.0 0 ------- null}
h -t 0.25416 -s 4 -d 0 -p ack -e 40 -c 0 -i 10 -a 0 -x {3.0 0.0 -1 ------- null}
r -t 0.25552 -s 4 -d 5 -p cbr -e 210 -c 0 -i 4 -a 0 -x {1.0 2.0 3 ------- null}
+ -t 0.25552 -s 5 -d 2 -p cbr -e 210 -c 0 -i 4 -a 0 -x {1.0 2.0 3 ------- null}
- -t 0.25552 -s 5 -d 2 -p cbr -e 210 -c 0 -i 4 -a 0 -x {1.0 2.0 3 ------- null}
h -t 0.25552 -s 5 -d 2 -p cbr -e 210 -c 0 -i 4 -a 0 -x {1.0 2.0 -1 ------- null}
+ -t 0.25625 -s 1 -d 4 -p cbr -e 210 -c 0 -i 17 -a 0 -x {1.0 2.0 15 ------- null}
- -t 0.25625 -s 1 -d 4 -p cbr -e 210 -c 0 -i 17 -a 0 -x {1.0 2.0 15 ------- null}
h -t 0.25625 -s 1 -d 4 -p cbr -e 210 -c 0 -i 17 -a 0 -x {1.0 2.0 -1 ------- null}
r -t 0.25668 -s 1 -d 4 -p cbr -e 210 -c 0 -i 14 -a 0 -x {1.0 2.0 12 ------- null}
+ -t 0.25668 -s 4 -d 5 -p cbr -e 210 -c 0 -i 14 -a 0 -x {1.0 2.0 12 ------- null}
r -t 0.2588 -s 5 -d 2 -p cbr -e 210 -c 0 -i 3 -a 0 -x {1.0 2.0 2 ------- null}
+ -t 0.26 -s 1 -d 4 -p cbr -e 210 -c 0 -i 18 -a 0 -x {1.0 2.0 16 ------- null}
- -t 0.26 -s 1 -d 4 -p cbr -e 210 -c 0 -i 18 -a 0 -x {1.0 2.0 16 ------- null}
h -t 0.26 -s 1 -d 4 -p cbr -e 210 -c 0 -i 18 -a 0 -x {1.0 2.0 -1 ------- null}
r -t 0.26043 -s 1 -d 4 -p cbr -e 210 -c 0 -i 15 -a 0 -x {1.0 2.0 13 ------- null}
+ -t 0.26043 -s 4 -d 5 -p cbr -e 210 -c 0 -i 15 -a 0 -x {1.0 2.0 13 ------- null}
- -t 0.26232 -s 4 -d 5 -p cbr -e 210 -c 0 -i 7 -a 0 -x {1.0 2.0 6 ------- null}
h -t 0.26232 -s 4 -d 5 -p cbr -e 210 -c 0 -i 7 -a 0 -x {1.0 2.0 -1 ------- null}
+ -t 0.26375 -s 1 -d 4 -p cbr -e 210 -c 0 -i 19 -a 0 -x {1.0 2.0 17 ------- null}
- -t 0.26375 -s 1 -d 4 -p cbr -e 210 -c 0 -i 19 -a 0 -x {1.0 2.0 17 ------- null}
h -t 0.26375 -s 1 -d 4 -p cbr -e 210 -c 0 -i 19 -a 0 -x {1.0 2.0 -1 ------- null}
r -t 0.26392 -s 4 -d 5 -p cbr -e 210 -c 0 -i 5 -a 0 -x {1.0 2.0 4 ------- null}
+ -t 0.26392 -s 5 -d 2 -p cbr -e 210 -c 0 -i 5 -a 0 -x {1.0 2.0 4 ------- null}
- -t 0.26392 -s 5 -d 2 -p cbr -e 210 -c 0 -i 5 -a 0 -x {1.0 2.0 4 ------- null}
h -t 0.26392 -s 5 -d 2 -p cbr -e 210 -c 0 -i 5 -a 0 -x {1.0 2.0 -1 ------- null}
r -t 0.26418 -s 1 -d 4 -p cbr -e 210 -c 0 -i 16 -a 0 -x {1.0 2.0 14 ------- null}
+ -t 0.26418 -s 4 -d 5 -p cbr -e 210 -c 0 -i 16 -a 0 -x {1.0 2.0 14 ------- null}
r -t 0.26448 -s 4 -d 0 -p ack -e 40 -c 0 -i 10 -a 0 -x {3.0 0.0 0 ------- null}
+ -t 0.26448 -s 0 -d 4 -p tcp -e 1040 -c 0 -i 20 -a 0 -x {0.0 3.0 1 ------- null}
- -t 0.26448 -s 0 -d 4 -p tcp -e 1040 -c 0 -i 20 -a 0 -x {0.0 3.0 1 ------- null}
h -t 0.26448 -s 0 -d 4 -p tcp -e 1040 -c 0 -i 20 -a 0 -x {0.0 3.0 -1 ------- null}
+ -t 0.26448 -s 0 -d 4 -p tcp -e 1040 -c 0 -i 21 -a 0 -x {0.0 3.0 2 ------- null}
r -t 0.2672 -s 5 -d 2 -p cbr -e 210 -c 0 -i 4 -a 0 -x {1.0 2.0 3 ------- null}
+ -t 0.2675 -s 1 -d 4 -p cbr -e 210 -c 0 -i 22 -a 0 -x {1.0 2.0 18 ------- null}
- -t 0.2675 -s 1 -d 4 -p cbr -e 210 -c 0 -i 22 -a 0 -x {1.0 2.0 18 ------- null}
h -t 0.2675 -s 1 -d 4 -p cbr -e 210 -c 0 -i 22 -a 0 -x {1.0 2.0 -1 ------- null}
r -t 0.26793 -s 1 -d 4 -p cbr -e 210 -c 0 -i 17 -a 0 -x {1.0 2.0 15 ------- null}
+ -t 0.26793 -s 4 -d 5 -p cbr -e 210 -c 0 -i 17 -a 0 -x {1.0 2.0 15 ------- null}
- -t 0.27072 -s 4 -d 5 -p cbr -e 210 -c 0 -i 8 -a 0 -x {1.0 2.0 7 ------- null}
h -t 0.27072 -s 4 -d 5 -p cbr -e 210 -c 0 -i 8 -a 0 -x {1.0 2.0 -1 ------- null}
+ -t 0.27125 -s 1 -d 4 -p cbr -e 210 -c 0 -i 23 -a 0 -x {1.0 2.0 19 ------- null}
- -t 0.27125 -s 1 -d 4 -p cbr -e 210 -c 0 -i 23 -a 0 -x {1.0 2.0 19 ------- null}
h -t 0.27125 -s 1 -d 4 -p cbr -e 210 -c 0 -i 23 -a 0 -x {1.0 2.0 -1 ------- null}
r -t 0.27168 -s 1 -d 4 -p cbr -e 210 -c 0 -i 18 -a 0 -x {1.0 2.0 16 ------- null}
+ -t 0.27168 -s 4 -d 5 -p cbr -e 210 -c 0 -i 18 -a 0 -x {1.0 2.0 16 ------- null}
r -t 0.27232 -s 4 -d 5 -p cbr -e 210 -c 0 -i 6 -a 0 -x {1.0 2.0 5 ------- null}
+ -t 0.27232 -s 5 -d 2 -p cbr -e 210 -c 0 -i 6 -a 0 -x {1.0 2.0 5 ------- null}
- -t 0.27232 -s 5 -d 2 -p cbr -e 210 -c 0 -i 6 -a 0 -x {1.0 2.0 5 ------- null}
h -t 0.27232 -s 5 -d 2 -p cbr -e 210 -c 0 -i 6 -a 0 -x {1.0 2.0 -1 ------- null}
- -t 0.2728 -s 0 -d 4 -p tcp -e 1040 -c 0 -i 21 -a 0 -x {0.0 3.0 2 ------- null}
h -t 0.2728 -s 0 -d 4 -p tcp -e 1040 -c 0 -i 21 -a 0 -x {0.0 3.0 -1 ------- null}
+ -t 0.275 -s 1 -d 4 -p cbr -e 210 -c 0 -i 24 -a 0 -x {1.0 2.0 20 ------- null}
- -t 0.275 -s 1 -d 4 -p cbr -e 210 -c 0 -i 24 -a 0 -x {1.0 2.0 20 ------- null}
h -t 0.275 -s 1 -d 4 -p cbr -e 210 -c 0 -i 24 -a 0 -x {1.0 2.0 -1 ------- null}
r -t 0.27543 -s 1 -d 4 -p cbr -e 210 -c 0 -i 19 -a 0 -x {1.0 2.0 17 ------- null}
+ -t 0.27543 -s 4 -d 5 -p cbr -e 210 -c 0 -i 19 -a 0 -x {1.0 2.0 17 ------- null}
r -t 0.2756 -s 5 -d 2 -p cbr -e 210 -c 0 -i 5 -a 0 -x {1.0 2.0 4 ------- null}
+ -t 0.27875 -s 1 -d 4 -p cbr -e 210 -c 0 -i 25 -a 0 -x {1.0 2.0 21 ------- null}
- -t 0.27875 -s 1 -d 4 -p cbr -e 210 -c 0 -i 25 -a 0 -x {1.0 2.0 21 ------- null}
h -t 0.27875 -s 1 -d 4 -p cbr -e 210 -c 0 -i 25 -a 0 -x {1.0 2.0 -1 ------- null}
- -t 0.27912 -s 4 -d 5 -p cbr -e 210 -c 0 -i 9 -a 0 -x {1.0 2.0 8 ------- null}
h -t 0.27912 -s 4 -d 5 -p cbr -e 210 -c 0 -i 9 -a 0 -x {1.0 2.0 -1 ------- null}
r -t 0.27918 -s 1 -d 4 -p cbr -e 210 -c 0 -i 22 -a 0 -x {1.0 2.0 18 ------- null}
+ -t 0.27918 -s 4 -d 5 -p cbr -e 210 -c 0 -i 22 -a 0 -x {1.0 2.0 18 ------- null}
r -t 0.28072 -s 4 -d 5 -p cbr -e 210 -c 0 -i 7 -a 0 -x {1.0 2.0 6 ------- null}
+ -t 0.28072 -s 5 -d 2 -p cbr -e 210 -c 0 -i 7 -a 0 -x {1.0 2.0 6 ------- null}
- -t 0.28072 -s 5 -d 2 -p cbr -e 210 -c 0 -i 7 -a 0 -x {1.0 2.0 6 ------- null}
h -t 0.28072 -s 5 -d 2 -p cbr -e 210 -c 0 -i 7 -a 0 -x {1.0 2.0 -1 ------- null}
+ -t 0.2825 -s 1 -d 4 -p cbr -e 210 -c 0 -i 26 -a 0 -x {1.0 2.0 22 ------- null}
- -t 0.2825 -s 1 -d 4 -p cbr -e 210 -c 0 -i 26 -a 0 -x {1.0 2.0 22 ------- null}
h -t 0.2825 -s 1 -d 4 -p cbr -e 210 -c 0 -i 26 -a 0 -x {1.0 2.0 -1 ------- null}
r -t 0.2828 -s 0 -d 4 -p tcp -e 1040 -c 0 -i 20 -a 0 -x {0.0 3.0 1 ------- null}
+ -t 0.2828 -s 4 -d 5 -p tcp -e 1040 -c 0 -i 20 -a 0 -x {0.0 3.0 1 ------- null}
r -t 0.28293 -s 1 -d 4 -p cbr -e 210 -c 0 -i 23 -a 0 -x {1.0 2.0 19 ------- null}
+ -t 0.28293 -s 4 -d 5 -p cbr -e 210 -c 0 -i 23 -a 0 -x {1.0 2.0 19 ------- null}
r -t 0.284 -s 5 -d 2 -p cbr -e 210 -c 0 -i 6 -a 0 -x {1.0 2.0 5 ------- null}
+ -t 0.28625 -s 1 -d 4 -p cbr -e 210 -c 0 -i 27 -a 0 -x {1.0 2.0 23 ------- null}
- -t 0.28625 -s 1 -d 4 -p cbr -e 210 -c 0 -i 27 -a 0 -x {1.0 2.0 23 ------- null}
h -t 0.28625 -s 1 -d 4 -p cbr -e 210 -c 0 -i 27 -a 0 -x {1.0 2.0 -1 ------- null}
r -t 0.28668 -s 1 -d 4 -p cbr -e 210 -c 0 -i 24 -a 0 -x {1.0 2.0 20 ------- null}
+ -t 0.28668 -s 4 -d 5 -p cbr -e 210 -c 0 -i 24 -a 0 -x {1.0 2.0 20 ------- null}
- -t 0.28752 -s 4 -d 5 -p cbr -e 210 -c 0 -i 11 -a 0 -x {1.0 2.0 9 ------- null}
h -t 0.28752 -s 4 -d 5 -p cbr -e 210 -c 0 -i 11 -a 0 -x {1.0 2.0 -1 ------- null}
r -t 0.28912 -s 4 -d 5 -p cbr -e 210 -c 0 -i 8 -a 0 -x {1.0 2.0 7 ------- null}
+ -t 0.28912 -s 5 -d 2 -p cbr -e 210 -c 0 -i 8 -a 0 -x {1.0 2.0 7 ------- null}
- -t 0.28912 -s 5 -d 2 -p cbr -e 210 -c 0 -i 8 -a 0 -x {1.0 2.0 7 ------- null}
h -t 0.28912 -s 5 -d 2 -p cbr -e 210 -c 0 -i 8 -a 0 -x {1.0 2.0 -1 ------- null}
+ -t 0.29 -s 1 -d 4 -p cbr -e 210 -c 0 -i 28 -a 0 -x {1.0 2.0 24 ------- null}
- -t 0.29 -s 1 -d 4 -p cbr -e 210 -c 0 -i 28 -a 0 -x {1.0 2.0 24 ------- null}
h -t 0.29 -s 1 -d 4 -p cbr -e 210 -c 0 -i 28 -a 0 -x {1.0 2.0 -1 ------- null}
r -t 0.29043 -s 1 -d 4 -p cbr -e 210 -c 0 -i 25 -a 0 -x {1.0 2.0 21 ------- null}
+ -t 0.29043 -s 4 -d 5 -p cbr -e 210 -c 0 -i 25 -a 0 -x {1.0 2.0 21 ------- null}
r -t 0.29112 -s 0 -d 4 -p tcp -e 1040 -c 0 -i 21 -a 0 -x {0.0 3.0 2 ------- null}
+ -t 0.29112 -s 4 -d 5 -p tcp -e 1040 -c 0 -i 21 -a 0 -x {0.0 3.0 2 ------- null}
r -t 0.2924 -s 5 -d 2 -p cbr -e 210 -c 0 -i 7 -a 0 -x {1.0 2.0 6 ------- null}
+ -t 0.29375 -s 1 -d 4 -p cbr -e 210 -c 0 -i 29 -a 0 -x {1.0 2.0 25 ------- null}
- -t 0.29375 -s 1 -d 4 -p cbr -e 210 -c 0 -i 29 -a 0 -x {1.0 2.0 25 ------- null}
h -t 0.29375 -s 1 -d 4 -p cbr -e 210 -c 0 -i 29 -a 0 -x {1.0 2.0 -1 ------- null}
r -t 0.29418 -s 1 -d 4 -p cbr -e 210 -c 0 -i 26 -a 0 -x {1.0 2.0 22 ------- null}
+ -t 0.29418 -s 4 -d 5 -p cbr -e 210 -c 0 -i 26 -a 0 -x {1.0 2.0 22 ------- null}
- -t 0.29592 -s 4 -d 5 -p cbr -e 210 -c 0 -i 12 -a 0 -x {1.0 2.0 10 ------- null}
h -t 0.29592 -s 4 -d 5 -p cbr -e 210 -c 0 -i 12 -a 0 -x {1.0 2.0 -1 ------- null}
+ -t 0.2975 -s 1 -d 4 -p cbr -e 210 -c 0 -i 30 -a 0 -x {1.0 2.0 26 ------- null}
- -t 0.2975 -s 1 -d 4 -p cbr -e 210 -c 0 -i 30 -a 0 -x {1.0 2.0 26 ------- null}
h -t 0.2975 -s 1 -d 4 -p cbr -e 210 -c 0 -i 30 -a 0 -x {1.0 2.0 -1 ------- null}
r -t 0.29752 -s 4 -d 5 -p cbr -e 210 -c 0 -i 9 -a 0 -x {1.0 2.0 8 ------- null}
+ -t 0.29752 -s 5 -d 2 -p cbr -e 210 -c 0 -i 9 -a 0 -x {1.0 2.0 8 ------- null}
- -t 0.29752 -s 5 -d 2 -p cbr -e 210 -c 0 -i 9 -a 0 -x {1.0 2.0 8 ------- null}
h -t 0.29752 -s 5 -d 2 -p cbr -e 210 -c 0 -i 9 -a 0 -x {1.0 2.0 -1 ------- null}
r -t 0.29793 -s 1 -d 4 -p cbr -e 210 -c 0 -i 27 -a 0 -x {1.0 2.0 23 ------- null}
+ -t 0.29793 -s 4 -d 5 -p cbr -e 210 -c 0 -i 27 -a 0 -x {1.0 2.0 23 ------- null}
r -t 0.3008 -s 5 -d 2 -p cbr -e 210 -c 0 -i 8 -a 0 -x {1.0 2.0 7 ------- null}
+ -t 0.30125 -s 1 -d 4 -p cbr -e 210 -c 0 -i 31 -a 0 -x {1.0 2.0 27 ------- null}
- -t 0.30125 -s 1 -d 4 -p cbr -e 210 -c 0 -i 31 -a 0 -x {1.0 2.0 27 ------- null}
h -t 0.30125 -s 1 -d 4 -p cbr -e 210 -c 0 -i 31 -a 0 -x {1.0 2.0 -1 ------- null}
r -t 0.30168 -s 1 -d 4 -p cbr -e 210 -c 0 -i 28 -a 0 -x {1.0 2.0 24 ------- null}
+ -t 0.30168 -s 4 -d 5 -p cbr -e 210 -c 0 -i 28 -a 0 -x {1.0 2.0 24 ------- null}
- -t 0.30432 -s 4 -d 5 -p cbr -e 210 -c 0 -i 13 -a 0 -x {1.0 2.0 11 ------- null}
h -t 0.30432 -s 4 -d 5 -p cbr -e 210 -c 0 -i 13 -a 0 -x {1.0 2.0 -1 ------- null}
+ -t 0.305 -s 1 -d 4 -p cbr -e 210 -c 0 -i 32 -a 0 -x {1.0 2.0 28 ------- null}
- -t 0.305 -s 1 -d 4 -p cbr -e 210 -c 0 -i 32 -a 0 -x {1.0 2.0 28 ------- null}
h -t 0.305 -s 1 -d 4 -p cbr -e 210 -c 0 -i 32 -a 0 -x {1.0 2.0 -1 ------- null}
r -t 0.30543 -s 1 -d 4 -p cbr -e 210 -c 0 -i 29 -a 0 -x {1.0 2.0 25 ------- null}
+ -t 0.30543 -s 4 -d 5 -p cbr -e 210 -c 0 -i 29 -a 0 -x {1.0 2.0 25 ------- null}
r -t 0.30592 -s 4 -d 5 -p cbr -e 210 -c 0 -i 11 -a 0 -x {1.0 2.0 9 ------- null}
+ -t 0.30592 -s 5 -d 2 -p cbr -e 210 -c 0 -i 11 -a 0 -x {1.0 2.0 9 ------- null}
- -t 0.30592 -s 5 -d 2 -p cbr -e 210 -c 0 -i 11 -a 0 -x {1.0 2.0 9 ------- null}
h -t 0.30592 -s 5 -d 2 -p cbr -e 210 -c 0 -i 11 -a 0 -x {1.0 2.0 -1 ------- null}
+ -t 0.30875 -s 1 -d 4 -p cbr -e 210 -c 0 -i 33 -a 0 -x {1.0 2.0 29 ------- null}
- -t 0.30875 -s 1 -d 4 -p cbr -e 210 -c 0 -i 33 -a 0 -x {1.0 2.0 29 ------- null}
h -t 0.30875 -s 1 -d 4 -p cbr -e 210 -c 0 -i 33 -a 0 -x {1.0 2.0 -1 ------- null}
r -t 0.30918 -s 1 -d 4 -p cbr -e 210 -c 0 -i 30 -a 0 -x {1.0 2.0 26 ------- null}
+ -t 0.30918 -s 4 -d 5 -p cbr -e 210 -c 0 -i 30 -a 0 -x {1.0 2.0 26 ------- null}
r -t 0.3092 -s 5 -d 2 -p cbr -e 210 -c 0 -i 9 -a 0 -x {1.0 2.0 8 ------- null}
+ -t 0.3125 -s 1 -d 4 -p cbr -e 210 -c 0 -i 34 -a 0 -x {1.0 2.0 30 ------- null}
- -t 0.3125 -s 1 -d 4 -p cbr -e 210 -c 0 -i 34 -a 0 -x {1.0 2.0 30 ------- null}
h -t 0.3125 -s 1 -d 4 -p cbr -e 210 -c 0 -i 34 -a 0 -x {1.0 2.0 -1 ------- null}
- -t 0.31272 -s 4 -d 5 -p cbr -e 210 -c 0 -i 14 -a 0 -x {1.0 2.0 12 ------- null}
h -t 0.31272 -s 4 -d 5 -p cbr -e 210 -c 0 -i 14 -a 0 -x {1.0 2.0 -1 ------- null}
r -t 0.31293 -s 1 -d 4 -p cbr -e 210 -c 0 -i 31 -a 0 -x {1.0 2.0 27 ------- null}
+ -t 0.31293 -s 4 -d 5 -p cbr -e 210 -c 0 -i 31 -a 0 -x {1.0 2.0 27 ------- null}
r -t 0.31432 -s 4 -d 5 -p cbr -e 210 -c 0 -i 12 -a 0 -x {1.0 2.0 10 ------- null}
+ -t 0.31432 -s 5 -d 2 -p cbr -e 210 -c 0 -i 12 -a 0 -x {1.0 2.0 10 ------- null}
- -t 0.31432 -s 5 -d 2 -p cbr -e 210 -c 0 -i 12 -a 0 -x {1.0 2.0 10 ------- null}
h -t 0.31432 -s 5 -d 2 -p cbr -e 210 -c 0 -i 12 -a 0 -x {1.0 2.0 -1 ------- null}
+ -t 0.31625 -s 1 -d 4 -p cbr -e 210 -c 0 -i 35 -a 0 -x {1.0 2.0 31 ------- null}
- -t 0.31625 -s 1 -d 4 -p cbr -e 210 -c 0 -i 35 -a 0 -x {1.0 2.0 31 ------- null}
h -t 0.31625 -s 1 -d 4 -p cbr -e 210 -c 0 -i 35 -a 0 -x {1.0 2.0 -1 ------- null}
r -t 0.31668 -s 1 -d 4 -p cbr -e 210 -c 0 -i 32 -a 0 -x {1.0 2.0 28 ------- null}
+ -t 0.31668 -s 4 -d 5 -p cbr -e 210 -c 0 -i 32 -a 0 -x {1.0 2.0 28 ------- null}
r -t 0.3176 -s 5 -d 2 -p cbr -e 210 -c 0 -i 11 -a 0 -x {1.0 2.0 9 ------- null}
+ -t 0.32 -s 1 -d 4 -p cbr -e 210 -c 0 -i 36 -a 0 -x {1.0 2.0 32 ------- null}
- -t 0.32 -s 1 -d 4 -p cbr -e 210 -c 0 -i 36 -a 0 -x {1.0 2.0 32 ------- null}
h -t 0.32 -s 1 -d 4 -p cbr -e 210 -c 0 -i 36 -a 0 -x {1.0 2.0 -1 ------- null}
r -t 0.32043 -s 1 -d 4 -p cbr -e 210 -c 0 -i 33 -a 0 -x {1.0 2.0 29 ------- null}
+ -t 0.32043 -s 4 -d 5 -p cbr -e 210 -c 0 -i 33 -a 0 -x {1.0 2.0 29 ------- null}
- -t 0.32112 -s 4 -d 5 -p cbr -e 210 -c 0 -i 15 -a 0 -x {1.0 2.0 13 ------- null}
h -t 0.32112 -s 4 -d 5 -p cbr -e 210 -c 0 -i 15 -a 0 -x {1.0 2.0 -1 ------- null}
r -t 0.32272 -s 4 -d 5 -p cbr -e 210 -c 0 -i 13 -a 0 -x {1.0 2.0 11 ------- null}
+ -t 0.32272 -s 5 -d 2 -p cbr -e 210 -c 0 -i 13 -a 0 -x {1.0 2.0 11 ------- null}
- -t 0.32272 -s 5 -d 2 -p cbr -e 210 -c 0 -i 13 -a 0 -x {1.0 2.0 11 ------- null}
h -t 0.32272 -s 5 -d 2 -p cbr -e 210 -c 0 -i 13 -a 0 -x {1.0 2.0 -1 ------- null}
+ -t 0.32375 -s 1 -d 4 -p cbr -e 210 -c 0 -i 37 -a 0 -x {1.0 2.0 33 ------- null}
- -t 0.32375 -s 1 -d 4 -p cbr -e 210 -c 0 -i 37 -a 0 -x {1.0 2.0 33 ------- null}
h -t 0.32375 -s 1 -d 4 -p cbr -e 210 -c 0 -i 37 -a 0 -x {1.0 2.0 -1 ------- null}
r -t 0.32418 -s 1 -d 4 -p cbr -e 210 -c 0 -i 34 -a 0 -x {1.0 2.0 30 ------- null}
+ -t 0.32418 -s 4 -d 5 -p cbr -e 210 -c 0 -i 34 -a 0 -x {1.0 2.0 30 ------- null}
r -t 0.326 -s 5 -d 2 -p cbr -e 210 -c 0 -i 12 -a 0 -x {1.0 2.0 10 ------- null}
+ -t 0.3275 -s 1 -d 4 -p cbr -e 210 -c 0 -i 38 -a 0 -x {1.0 2.0 34 ------- null}
- -t 0.3275 -s 1 -d 4 -p cbr -e 210 -c 0 -i 38 -a 0 -x {1.0 2.0 34 ------- null}
h -t 0.3275 -s 1 -d 4 -p cbr -e 210 -c 0 -i 38 -a 0 -x {1.0 2.0 -1 ------- null}
r -t 0.32793 -s 1 -d 4 -p cbr -e 210 -c 0 -i 35 -a 0 -x {1.0 2.0 31 ------- null}
+ -t 0.32793 -s 4 -d 5 -p cbr -e 210 -c 0 -i 35 -a 0 -x {1.0 2.0 31 ------- null}
- -t 0.32952 -s 4 -d 5 -p cbr -e 210 -c 0 -i 16 -a 0 -x {1.0 2.0 14 ------- null}
h -t 0.32952 -s 4 -d 5 -p cbr -e 210 -c 0 -i 16 -a 0 -x {1.0 2.0 -1 ------- null}
r -t 0.33112 -s 4 -d 5 -p cbr -e 210 -c 0 -i 14 -a 0 -x {1.0 2.0 12 ------- null}
+ -t 0.33112 -s 5 -d 2 -p cbr -e 210 -c 0 -i 14 -a 0 -x {1.0 2.0 12 ------- null}
- -t 0.33112 -s 5 -d 2 -p cbr -e 210 -c 0 -i 14 -a 0 -x {1.0 2.0 12 ------- null}
h -t 0.33112 -s 5 -d 2 -p cbr -e 210 -c 0 -i 14 -a 0 -x {1.0 2.0 -1 ------- null}
+ -t 0.33125 -s 1 -d 4 -p cbr -e 210 -c 0 -i 39 -a 0 -x {1.0 2.0 35 ------- null}
- -t 0.33125 -s 1 -d 4 -p cbr -e 210 -c 0 -i 39 -a 0 -x {1.0 2.0 35 ------- null}
h -t 0.33125 -s 1 -d 4 -p cbr -e 210 -c 0 -i 39 -a 0 -x {1.0 2.0 -1 ------- null}
r -t 0.33168 -s 1 -d 4 -p cbr -e 210 -c 0 -i 36 -a 0 -x {1.0 2.0 32 ------- null}
+ -t 0.33168 -s 4 -d 5 -p cbr -e 210 -c 0 -i 36 -a 0 -x {1.0 2.0 32 ------- null}
r -t 0.3344 -s 5 -d 2 -p cbr -e 210 -c 0 -i 13 -a 0 -x {1.0 2.0 11 ------- null}
+ -t 0.335 -s 1 -d 4 -p cbr -e 210 -c 0 -i 40 -a 0 -x {1.0 2.0 36 ------- null}
- -t 0.335 -s 1 -d 4 -p cbr -e 210 -c 0 -i 40 -a 0 -x {1.0 2.0 36 ------- null}
h -t 0.335 -s 1 -d 4 -p cbr -e 210 -c 0 -i 40 -a 0 -x {1.0 2.0 -1 ------- null}
r -t 0.33543 -s 1 -d 4 -p cbr -e 210 -c 0 -i 37 -a 0 -x {1.0 2.0 33 ------- null}
+ -t 0.33543 -s 4 -d 5 -p cbr -e 210 -c 0 -i 37 -a 0 -x {1.0 2.0 33 ------- null}
- -t 0.33792 -s 4 -d 5 -p cbr -e 210 -c 0 -i 17 -a 0 -x {1.0 2.0 15 ------- null}
h -t 0.33792 -s 4 -d 5 -p cbr -e 210 -c 0 -i 17 -a 0 -x {1.0 2.0 -1 ------- null}
+ -t 0.338749999999999 -s 1 -d 4 -p cbr -e 210 -c 0 -i 41 -a 0 -x {1.0 2.0 37 ------- null}
- -t 0.338749999999999 -s 1 -d 4 -p cbr -e 210 -c 0 -i 41 -a 0 -x {1.0 2.0 37 ------- null}
h -t 0.338749999999999 -s 1 -d 4 -p cbr -e 210 -c 0 -i 41 -a 0 -x {1.0 2.0 -1 ------- null}
r -t 0.33918 -s 1 -d 4 -p cbr -e 210 -c 0 -i 38 -a 0 -x {1.0 2.0 34 ------- null}
+ -t 0.33918 -s 4 -d 5 -p cbr -e 210 -c 0 -i 38 -a 0 -x {1.0 2.0 34 ------- null}
r -t 0.33952 -s 4 -d 5 -p cbr -e 210 -c 0 -i 15 -a 0 -x {1.0 2.0 13 ------- null}
+ -t 0.33952 -s 5 -d 2 -p cbr -e 210 -c 0 -i 15 -a 0 -x {1.0 2.0 13 ------- null}
- -t 0.33952 -s 5 -d 2 -p cbr -e 210 -c 0 -i 15 -a 0 -x {1.0 2.0 13 ------- null}
h -t 0.33952 -s 5 -d 2 -p cbr -e 210 -c 0 -i 15 -a 0 -x {1.0 2.0 -1 ------- null}
+ -t 0.342499999999999 -s 1 -d 4 -p cbr -e 210 -c 0 -i 42 -a 0 -x {1.0 2.0 38 ------- null}
- -t 0.342499999999999 -s 1 -d 4 -p cbr -e 210 -c 0 -i 42 -a 0 -x {1.0 2.0 38 ------- null}
h -t 0.342499999999999 -s 1 -d 4 -p cbr -e 210 -c 0 -i 42 -a 0 -x {1.0 2.0 -1 ------- null}
r -t 0.3428 -s 5 -d 2 -p cbr -e 210 -c 0 -i 14 -a 0 -x {1.0 2.0 12 ------- null}
r -t 0.34293 -s 1 -d 4 -p cbr -e 210 -c 0 -i 39 -a 0 -x {1.0 2.0 35 ------- null}
+ -t 0.34293 -s 4 -d 5 -p cbr -e 210 -c 0 -i 39 -a 0 -x {1.0 2.0 35 ------- null}
+ -t 0.346249999999999 -s 1 -d 4 -p cbr -e 210 -c 0 -i 43 -a 0 -x {1.0 2.0 39 ------- null}
- -t 0.346249999999999 -s 1 -d 4 -p cbr -e 210 -c 0 -i 43 -a 0 -x {1.0 2.0 39 ------- null}
h -t 0.346249999999999 -s 1 -d 4 -p cbr -e 210 -c 0 -i 43 -a 0 -x {1.0 2.0 -1 ------- null}
- -t 0.34632 -s 4 -d 5 -p cbr -e 210 -c 0 -i 18 -a 0 -x {1.0 2.0 16 ------- null}
h -t 0.34632 -s 4 -d 5 -p cbr -e 210 -c 0 -i 18 -a 0 -x {1.0 2.0 -1 ------- null}
r -t 0.34668 -s 1 -d 4 -p cbr -e 210 -c 0 -i 40 -a 0 -x {1.0 2.0 36 ------- null}
+ -t 0.34668 -s 4 -d 5 -p cbr -e 210 -c 0 -i 40 -a 0 -x {1.0 2.0 36 ------- null}
r -t 0.34792 -s 4 -d 5 -p cbr -e 210 -c 0 -i 16 -a 0 -x {1.0 2.0 14 ------- null}
+ -t 0.34792 -s 5 -d 2 -p cbr -e 210 -c 0 -i 16 -a 0 -x {1.0 2.0 14 ------- null}
- -t 0.34792 -s 5 -d 2 -p cbr -e 210 -c 0 -i 16 -a 0 -x {1.0 2.0 14 ------- null}
h -t 0.34792 -s 5 -d 2 -p cbr -e 210 -c 0 -i 16 -a 0 -x {1.0 2.0 -1 ------- null}
+ -t 0.349999999999999 -s 1 -d 4 -p cbr -e 210 -c 0 -i 44 -a 0 -x {1.0 2.0 40 ------- null}
- -t 0.349999999999999 -s 1 -d 4 -p cbr -e 210 -c 0 -i 44 -a 0 -x {1.0 2.0 40 ------- null}
h -t 0.349999999999999 -s 1 -d 4 -p cbr -e 210 -c 0 -i 44 -a 0 -x {1.0 2.0 -1 ------- null}
r -t 0.35043 -s 1 -d 4 -p cbr -e 210 -c 0 -i 41 -a 0 -x {1.0 2.0 37 ------- null}
+ -t 0.35043 -s 4 -d 5 -p cbr -e 210 -c 0 -i 41 -a 0 -x {1.0 2.0 37 ------- null}
r -t 0.3512 -s 5 -d 2 -p cbr -e 210 -c 0 -i 15 -a 0 -x {1.0 2.0 13 ------- null}
+ -t 0.353749999999999 -s 1 -d 4 -p cbr -e 210 -c 0 -i 45 -a 0 -x {1.0 2.0 41 ------- null}
- -t 0.353749999999999 -s 1 -d 4 -p cbr -e 210 -c 0 -i 45 -a 0 -x {1.0 2.0 41 ------- null}
h -t 0.353749999999999 -s 1 -d 4 -p cbr -e 210 -c 0 -i 45 -a 0 -x {1.0 2.0 -1 ------- null}
r -t 0.354179999999999 -s 1 -d 4 -p cbr -e 210 -c 0 -i 42 -a 0 -x {1.0 2.0 38 ------- null}
+ -t 0.354179999999999 -s 4 -d 5 -p cbr -e 210 -c 0 -i 42 -a 0 -x {1.0 2.0 38 ------- null}
- -t 0.35472 -s 4 -d 5 -p cbr -e 210 -c 0 -i 19 -a 0 -x {1.0 2.0 17 ------- null}
h -t 0.35472 -s 4 -d 5 -p cbr -e 210 -c 0 -i 19 -a 0 -x {1.0 2.0 -1 ------- null}
r -t 0.35632 -s 4 -d 5 -p cbr -e 210 -c 0 -i 17 -a 0 -x {1.0 2.0 15 ------- null}
+ -t 0.35632 -s 5 -d 2 -p cbr -e 210 -c 0 -i 17 -a 0 -x {1.0 2.0 15 ------- null}
- -t 0.35632 -s 5 -d 2 -p cbr -e 210 -c 0 -i 17 -a 0 -x {1.0 2.0 15 ------- null}
h -t 0.35632 -s 5 -d 2 -p cbr -e 210 -c 0 -i 17 -a 0 -x {1.0 2.0 -1 ------- null}
+ -t 0.357499999999999 -s 1 -d 4 -p cbr -e 210 -c 0 -i 46 -a 0 -x {1.0 2.0 42 ------- null}
- -t 0.357499999999999 -s 1 -d 4 -p cbr -e 210 -c 0 -i 46 -a 0 -x {1.0 2.0 42 ------- null}
h -t 0.357499999999999 -s 1 -d 4 -p cbr -e 210 -c 0 -i 46 -a 0 -x {1.0 2.0 -1 ------- null}
r -t 0.357929999999999 -s 1 -d 4 -p cbr -e 210 -c 0 -i 43 -a 0 -x {1.0 2.0 39 ------- null}
+ -t 0.357929999999999 -s 4 -d 5 -p cbr -e 210 -c 0 -i 43 -a 0 -x {1.0 2.0 39 ------- null}