+ 0.2 0 4 tcp 40 ------- 0 0.0 3.0 0 0
- 0.2 0 4 tcp 40 ------- 0 0.0 3.0 0 0
+ 0.2 1 4 cbr 210 ------- 0 1.0 2.0 0 1
- 0.2 1 4 cbr 210 ------- 0 1.0 2.0 0 1
+ 0.20375 1 4 cbr 210 ------- 0 1.0 2.0 1 2
- 0.20375 1 4 cbr 210 ------- 0 1.0 2.0 1 2
+ 0.2075 1 4 cbr 210 ------- 0 1.0 2.0 2 3
- 0.2075 1 4 cbr 210 ------- 0 1.0 2.0 2 3
r 0.21032 0 4 tcp 40 ------- 0 0.0 3.0 0 0
+ 0.21032 4 5 tcp 40 ------- 0 0.0 3.0 0 0
- 0.21032 4 5 tcp 40 ------- 0 0.0 3.0 0 0
+ 0.21125 1 4 cbr 210 ------- 0 1.0 2.0 3 4
- 0.21125 1 4 cbr 210 ------- 0 1.0 2.0 3 4
r 0.21168 1 4 cbr 210 ------- 0 1.0 2.0 0 1
+ 0.21168 4 5 cbr 210 ------- 0 1.0 2.0 0 1
- 0.21192 4 5 cbr 210 ------- 0 1.0 2.0 0 1
+ 0.215 1 4 cbr 210 ------- 0 1.0 2.0 4 5
- 0.215 1 4 cbr 210 ------- 0 1.0 2.0 4 5
r 0.21543 1 4 cbr 210 ------- 0 1.0 2.0 1 2
+ 0.21543 4 5 cbr 210 ------- 0 1.0 2.0 1 2
+ 0.21875 1 4 cbr 210 ------- 0 1.0 2.0 5 6
- 0.21875 1 4 cbr 210 ------- 0 1.0 2.0 5 6
r 0.21918 1 4 cbr 210 ------- 0 1.0 2.0 2 3
+ 0.21918 4 5 cbr 210 ------- 0 1.0 2.0 2 3
- 0.22032 4 5 cbr 210 ------- 0 1.0 2.0 1 2
r 0.22192 4 5 tcp 40 ------- 0 0.0 3.0 0 0
+ 0.22192 5 3 tcp 40 ------- 0 0.0 3.0 0 0
- 0.22192 5 3 tcp 40 ------- 0 0.0 3.0 0 0
+ 0.2225 1 4 cbr 210 ------- 0 1.0 2.0 6 7
- 0.2225 1 4 cbr 210 ------- 0 1.0 2.0 6 7
r 0.22293 1 4 cbr 210 ------- 0 1.0 2.0 3 4
+ 0.22293 4 5 cbr 210 ------- 0 1.0 2.0 3 4
+ 0.22625 1 4 cbr 210 ------- 0 1.0 2.0 7 8
- 0.22625 1 4 cbr 210 ------- 0 1.0 2.0 7 8
r 0.22668 1 4 cbr 210 ------- 0 1.0 2.0 4 5
+ 0.22668 4 5 cbr 210 ------- 0 1.0 2.0 4 5
- 0.22872 4 5 cbr 210 ------- 0 1.0 2.0 2 3
+ 0.23 1 4 cbr 210 ------- 0 1.0 2.0 8 9
- 0.23 1 4 cbr 210 ------- 0 1.0 2.0 8 9
r 0.23032 4 5 cbr 210 ------- 0 1.0 2.0 0 1
+ 0.23032 5 2 cbr 210 ------- 0 1.0 2.0 0 1
- 0.23032 5 2 cbr 210 ------- 0 1.0 2.0 0 1
r 0.23043 1 4 cbr 210 ------- 0 1.0 2.0 5 6
+ 0.23043 4 5 cbr 210 ------- 0 1.0 2.0 5 6
r 0.23224 5 3 tcp 40 ------- 0 0.0 3.0 0 0
+ 0.23224 3 5 ack 40 ------- 0 3.0 0.0 0 10
- 0.23224 3 5 ack 40 ------- 0 3.0 0.0 0 10
+ 0.23375 1 4 cbr 210 ------- 0 1.0 2.0 9 11
- 0.23375 1 4 cbr 210 ------- 0 1.0 2.0 9 11
r 0.23418 1 4 cbr 210 ------- 0 1.0 2.0 6 7
+ 0.23418 4 5 cbr 210 ------- 0 1.0 2.0 6 7
- 0.23712 4 5 cbr 210 ------- 0 1.0 2.0 3 4
+ 0.2375 1 4 cbr 210 ------- 0 1.0 2.0 10 12
- 0.2375 1 4 cbr 210 ------- 0 1.0 2.0 10 12
r 0.23793 1 4 cbr 210 ------- 0 1.0 2.0 7 8
+ 0.23793 4 5 cbr 210 ------- 0 1.0 2.0 7 8
r 0.23872 4 5 cbr 210 ------- 0 1.0 2.0 1 2
+ 0.23872 5 2 cbr 210 ------- 0 1.0 2.0 1 2
- 0.23872 5 2 cbr 210 ------- 0 1.0 2.0 1 2
+ 0.24125 1 4 cbr 210 ------- 0 1.0 2.0 11 13
- 0.24125 1 4 cbr 210 ------- 0 1.0 2.0 11 13
r 0.24168 1 4 cbr 210 ------- 0 1.0 2.0 8 9
+ 0.24168 4 5 cbr 210 ------- 0 1.0 2.0 8 9
r 0.242 5 2 cbr 210 ------- 0 1.0 2.0 0 1
r 0.24256 3 5 ack 40 ------- 0 3.0 0.0 0 10
+ 0.24256 5 4 ack 40 ------- 0 3.0 0.0 0 10
- 0.24256 5 4 ack 40 ------- 0 3.0 0.0 0 10
+ 0.245 1 4 cbr 210 ------- 0 1.0 2.0 12 14
- 0.245 1 4 cbr 210 ------- 0 1.0 2.0 12 14
r 0.24543 1 4 cbr 210 ------- 0 1.0 2.0 9 11
+ 0.24543 4 5 cbr 210 ------- 0 1.0 2.0 9 11
- 0.24552 4 5 cbr 210 ------- 0 1.0 2.0 4 5
r 0.24712 4 5 cbr 210 ------- 0 1.0 2.0 2 3
+ 0.24712 5 2 cbr 210 ------- 0 1.0 2.0 2 3
- 0.24712 5 2 cbr 210 ------- 0 1.0 2.0 2 3
+ 0.24875 1 4 cbr 210 ------- 0 1.0 2.0 13 15
- 0.24875 1 4 cbr 210 ------- 0 1.0 2.0 13 15
r 0.24918 1 4 cbr 210 ------- 0 1.0 2.0 10 12
+ 0.24918 4 5 cbr 210 ------- 0 1.0 2.0 10 12
r 0.2504 5 2 cbr 210 ------- 0 1.0 2.0 1 2
+ 0.2525 1 4 cbr 210 ------- 0 1.0 2.0 14 16
- 0.2525 1 4 cbr 210 ------- 0 1.0 2.0 14 16
r 0.25293 1 4 cbr 210 ------- 0 1.0 2.0 11 13
+ 0.25293 4 5 cbr 210 ------- 0 1.0 2.0 11 13
- 0.25392 4 5 cbr 210 ------- 0 1.0 2.0 5 6
r 0.25416 5 4 ack 40 ------- 0 3.0 0.0 0 10
+ 0.25416 4 0 ack 40 ------- 0 3.0 0.0 0 10
- 0.25416 4 0 ack 40 ------- 0 3.0 0.0 0 10
r 0.25552 4 5 cbr 210 ------- 0 1.0 2.0 3 4
+ 0.25552 5 2 cbr 210 ------- 0 1.0 2.0 3 4
- 0.25552 5 2 cbr 210 ------- 0 1.0 2.0 3 4
+ 0.25625 1 4 cbr 210 ------- 0 1.0 2.0 15 17
- 0.25625 1 4 cbr 210 ------- 0 1.0 2.0 15 17
r 0.25668 1 4 cbr 210 ------- 0 1.0 2.0 12 14
+ 0.25668 4 5 cbr 210 ------- 0 1.0 2.0 12 14
r 0.2588 5 2 cbr 210 ------- 0 1.0 2.0 2 3
+ 0.26 1 4 cbr 210 ------- 0 1.0 2.0 16 18
- 0.26 1 4 cbr 210 ------- 0 1.0 2.0 16 18
r 0.26043 1 4 cbr 210 ------- 0 1.0 2.0 13 15
+ 0.26043 4 5 cbr 210 ------- 0 1.0 2.0 13 15
- 0.26232 4 5 cbr 210 ------- 0 1.0 2.0 6 7
+ 0.26375 1 4 cbr 210 ------- 0 1.0 2.0 17 19
- 0.26375 1 4 cbr 210 ------- 0 1.0 2.0 17 19
r 0.26392 4 5 cbr 210 ------- 0 1.0 2.0 4 5
+ 0.26392 5 2 cbr 210 ------- 0 1.0 2.0 4 5
- 0.26392 5 2 cbr 210 ------- 0 1.0 2.0 4 5
r 0.26418 1 4 cbr 210 ------- 0 1.0 2.0 14 16
+ 0.26418 4 5 cbr 210 ------- 0 1.0 2.0 14 16
r 0.26448 4 0 ack 40 ------- 0 3.0 0.0 0 10
+ 0.26448 0 4 tcp 1040 ------- 0 0.0 3.0 1 20
- 0.26448 0 4 tcp 1040 ------- 0 0.0 3.0 1 20
+ 0.26448 0 4 tcp 1040 ------- 0 0.0 3.0 2 21
r 0.2672 5 2 cbr 210 ------- 0 1.0 2.0 3 4
+ 0.2675 1 4 cbr 210 ------- 0 1.0 2.0 18 22
- 0.2675 1 4 cbr 210 ------- 0 1.0 2.0 18 22
r 0.26793 1 4 cbr 210 ------- 0 1.0 2.0 15 17
+ 0.26793 4 5 cbr 210 ------- 0 1.0 2.0 15 17
- 0.27072 4 5 cbr 210 ------- 0 1.0 2.0 7 8
+ 0.27125 1 4 cbr 210 ------- 0 1.0 2.0 19 23
- 0.27125 1 4 cbr 210 ------- 0 1.0 2.0 19 23
r 0.27168 1 4 cbr 210 ------- 0 1.0 2.0 16 18
+ 0.27168 4 5 cbr 210 ------- 0 1.0 2.0 16 18
r 0.27232 4 5 cbr 210 ------- 0 1.0 2.0 5 6
+ 0.27232 5 2 cbr 210 ------- 0 1.0 2.0 5 6
- 0.27232 5 2 cbr 210 ------- 0 1.0 2.0 5 6
- 0.2728 0 4 tcp 1040 ------- 0 0.0 3.0 2 21
+ 0.275 1 4 cbr 210 ------- 0 1.0 2.0 20 24
- 0.275 1 4 cbr 210 ------- 0 1.0 2.0 20 24
r 0.27543 1 4 cbr 210 ------- 0 1.0 2.0 17 19
+ 0.27543 4 5 cbr 210 ------- 0 1.0 2.0 17 19
r 0.2756 5 2 cbr 210 ------- 0 1.0 2.0 4 5
+ 0.27875 1 4 cbr 210 ------- 0 1.0 2.0 21 25
- 0.27875 1 4 cbr 210 ------- 0 1.0 2.0 21 25
- 0.27912 4 5 cbr 210 ------- 0 1.0 2.0 8 9
r 0.27918 1 4 cbr 210 ------- 0 1.0 2.0 18 22
+ 0.27918 4 5 cbr 210 ------- 0 1.0 2.0 18 22
r 0.28072 4 5 cbr 210 ------- 0 1.0 2.0 6 7
+ 0.28072 5 2 cbr 210 ------- 0 1.0 2.0 6 7
- 0.28072 5 2 cbr 210 ------- 0 1.0 2.0 6 7
+ 0.2825 1 4 cbr 210 ------- 0 1.0 2.0 22 26
- 0.2825 1 4 cbr 210 ------- 0 1.0 2.0 22 26
r 0.2828 0 4 tcp 1040 ------- 0 0.0 3.0 1 20
+ 0.2828 4 5 tcp 1040 ------- 0 0.0 3.0 1 20
r 0.28293 1 4 cbr 210 ------- 0 1.0 2.0 19 23
+ 0.28293 4 5 cbr 210 ------- 0 1.0 2.0 19 23
r 0.284 5 2 cbr 210 ------- 0 1.0 2.0 5 6
+ 0.28625 1 4 cbr 210 ------- 0 1.0 2.0 23 27
- 0.28625 1 4 cbr 210 ------- 0 1.0 2.0 23 27
r 0.28668 1 4 cbr 210 ------- 0 1.0 2.0 20 24
+ 0.28668 4 5 cbr 210 ------- 0 1.0 2.0 20 24
- 0.28752 4 5 cbr 210 ------- 0 1.0 2.0 9 11
r 0.28912 4 5 cbr 210 ------- 0 1.0 2.0 7 8
+ 0.28912 5 2 cbr 210 ------- 0 1.0 2.0 7 8
- 0.28912 5 2 cbr 210 ------- 0 1.0 2.0 7 8
+ 0.29 1 4 cbr 210 ------- 0 1.0 2.0 24 28
- 0.29 1 4 cbr 210 ------- 0 1.0 2.0 24 28
r 0.29043 1 4 cbr 210 ------- 0 1.0 2.0 21 25
+ 0.29043 4 5 cbr 210 ------- 0 1.0 2.0 21 25
r 0.29112 0 4 tcp 1040 ------- 0 0.0 3.0 2 21
+ 0.29112 4 5 tcp 1040 ------- 0 0.0 3.0 2 21
r 0.2924 5 2 cbr 210 ------- 0 1.0 2.0 6 7
+ 0.29375 1 4 cbr 210 ------- 0 1.0 2.0 25 29
- 0.29375 1 4 cbr 210 ------- 0 1.0 2.0 25 29
r 0.29418 1 4 cbr 210 ------- 0 1.0 2.0 22 26
+ 0.29418 4 5 cbr 210 ------- 0 1.0 2.0 22 26
- 0.29592 4 5 cbr 210 ------- 0 1.0 2.0 10 12
+ 0.2975 1 4 cbr 210 ------- 0 1.0 2.0 26 30
- 0.2975 1 4 cbr 210 ------- 0 1.0 2.0 26 30
r 0.29752 4 5 cbr 210 ------- 0 1.0 2.0 8 9
+ 0.29752 5 2 cbr 210 ------- 0 1.0 2.0 8 9
- 0.29752 5 2 cbr 210 ------- 0 1.0 2.0 8 9
r 0.29793 1 4 cbr 210 ------- 0 1.0 2.0 23 27
+ 0.29793 4 5 cbr 210 ------- 0 1.0 2.0 23 27
r 0.3008 5 2 cbr 210 ------- 0 1.0 2.0 7 8
+ 0.30125 1 4 cbr 210 ------- 0 1.0 2.0 27 31
- 0.30125 1 4 cbr 210 ------- 0 1.0 2.0 27 31
r 0.30168 1 4 cbr 210 ------- 0 1.0 2.0 24 28
+ 0.30168 4 5 cbr 210 ------- 0 1.0 2.0 24 28
- 0.30432 4 5 cbr 210 ------- 0 1.0 2.0 11 13
+ 0.305 1 4 cbr 210 ------- 0 1.0 2.0 28 32
- 0.305 1 4 cbr 210 ------- 0 1.0 2.0 28 32
r 0.30543 1 4 cbr 210 ------- 0 1.0 2.0 25 29
+ 0.30543 4 5 cbr 210 ------- 0 1.0 2.0 25 29
r 0.30592 4 5 cbr 210 ------- 0 1.0 2.0 9 11
+ 0.30592 5 2 cbr 210 ------- 0 1.0 2.0 9 11
- 0.30592 5 2 cbr 210 ------- 0 1.0 2.0 9 11
+ 0.30875 1 4 cbr 210 ------- 0 1.0 2.0 29 33
- 0.30875 1 4 cbr 210 ------- 0 1.0 2.0 29 33
r 0.30918 1 4 cbr 210 ------- 0 1.0 2.0 26 30
+ 0.30918 4 5 cbr 210 ------- 0 1.0 2.0 26 30
r 0.3092 5 2 cbr 210 ------- 0 1.0 2.0 8 9
+ 0.3125 1 4 cbr 210 ------- 0 1.0 2.0 30 34
- 0.3125 1 4 cbr 210 ------- 0 1.0 2.0 30 34
- 0.31272 4 5 cbr 210 ------- 0 1.0 2.0 12 14
r 0.31293 1 4 cbr 210 ------- 0 1.0 2.0 27 31
+ 0.31293 4 5 cbr 210 ------- 0 1.0 2.0 27 31
r 0.31432 4 5 cbr 210 ------- 0 1.0 2.0 10 12
+ 0.31432 5 2 cbr 210 ------- 0 1.0 2.0 10 12
- 0.31432 5 2 cbr 210 ------- 0 1.0 2.0 10 12
+ 0.31625 1 4 cbr 210 ------- 0 1.0 2.0 31 35
- 0.31625 1 4 cbr 210 ------- 0 1.0 2.0 31 35
r 0.31668 1 4 cbr 210 ------- 0 1.0 2.0 28 32
+ 0.31668 4 5 cbr 210 ------- 0 1.0 2.0 28 32
r 0.3176 5 2 cbr 210 ------- 0 1.0 2.0 9 11
+ 0.32 1 4 cbr 210 ------- 0 1.0 2.0 32 36
- 0.32 1 4 cbr 210 ------- 0 1.0 2.0 32 36
r 0.32043 1 4 cbr 210 ------- 0 1.0 2.0 29 33
+ 0.32043 4 5 cbr 210 ------- 0 1.0 2.0 29 33
- 0.32112 4 5 cbr 210 ------- 0 1.0 2.0 13 15
r 0.32272 4 5 cbr 210 ------- 0 1.0 2.0 11 13
+ 0.32272 5 2 cbr 210 ------- 0 1.0 2.0 11 13
- 0.32272 5 2 cbr 210 ------- 0 1.0 2.0 11 13
+ 0.32375 1 4 cbr 210 ------- 0 1.0 2.0 33 37
- 0.32375 1 4 cbr 210 ------- 0 1.0 2.0 33 37
r 0.32418 1 4 cbr 210 ------- 0 1.0 2.0 30 34
+ 0.32418 4 5 cbr 210 ------- 0 1.0 2.0 30 34
r 0.326 5 2 cbr 210 ------- 0 1.0 2.0 10 12
+ 0.3275 1 4 cbr 210 ------- 0 1.0 2.0 34 38
- 0.3275 1 4 cbr 210 ------- 0 1.0 2.0 34 38
r 0.32793 1 4 cbr 210 ------- 0 1.0 2.0 31 35
+ 0.32793 4 5 cbr 210 ------- 0 1.0 2.0 31 35
- 0.32952 4 5 cbr 210 ------- 0 1.0 2.0 14 16
r 0.33112 4 5 cbr 210 ------- 0 1.0 2.0 12 14
+ 0.33112 5 2 cbr 210 ------- 0 1.0 2.0 12 14
- 0.33112 5 2 cbr 210 ------- 0 1.0 2.0 12 14
+ 0.33125 1 4 cbr 210 ------- 0 1.0 2.0 35 39
- 0.33125 1 4 cbr 210 ------- 0 1.0 2.0 35 39
r 0.33168 1 4 cbr 210 ------- 0 1.0 2.0 32 36
+ 0.33168 4 5 cbr 210 ------- 0 1.0 2.0 32 36
r 0.3344 5 2 cbr 210 ------- 0 1.0 2.0 11 13
+ 0.335 1 4 cbr 210 ------- 0 1.0 2.0 36 40
- 0.335 1 4 cbr 210 ------- 0 1.0 2.0 36 40
r 0.33543 1 4 cbr 210 ------- 0 1.0 2.0 33 37
+ 0.33543 4 5 cbr 210 ------- 0 1.0 2.0 33 37
- 0.33792 4 5 cbr 210 ------- 0 1.0 2.0 15 17
+ 0.33875 1 4 cbr 210 ------- 0 1.0 2.0 37 41
- 0.33875 1 4 cbr 210 ------- 0 1.0 2.0 37 41
r 0.33918 1 4 cbr 210 ------- 0 1.0 2.0 34 38
+ 0.33918 4 5 cbr 210 ------- 0 1.0 2.0 34 38
r 0.33952 4 5 cbr 210 ------- 0 1.0 2.0 13 15
+ 0.33952 5 2 cbr 210 ------- 0 1.0 2.0 13 15
- 0.33952 5 2 cbr 210 ------- 0 1.0 2.0 13 15
+ 0.3425 1 4 cbr 210 ------- 0 1.0 2.0 38 42
- 0.3425 1 4 cbr 210 ------- 0 1.0 2.0 38 42
r 0.3428 5 2 cbr 210 ------- 0 1.0 2.0 12 14
r 0.34293 1 4 cbr 210 ------- 0 1.0 2.0 35 39
+ 0.34293 4 5 cbr 210 ------- 0 1.0 2.0 35 39
+ 0.34625 1 4 cbr 210 ------- 0 1.0 2.0 39 43
- 0.34625 1 4 cbr 210 ------- 0 1.0 2.0 39 43
- 0.34632 4 5 cbr 210 ------- 0 1.0 2.0 16 18
r 0.34668 1 4 cbr 210 ------- 0 1.0 2.0 36 40
+ 0.34668 4 5 cbr 210 ------- 0 1.0 2.0 36 40
r 0.34792 4 5 cbr 210 ------- 0 1.0 2.0 14 16
+ 0.34792 5 2 cbr 210 ------- 0 1.0 2.0 14 16
- 0.34792 5 2 cbr 210 ------- 0 1.0 2.0 14 16
+ 0.35 1 4 cbr 210 ------- 0 1.0 2.0 40 44
- 0.35 1 4 cbr 210 ------- 0 1.0 2.0 40 44
r 0.35043 1 4 cbr 210 ------- 0 1.0 2.0 37 41
+ 0.35043 4 5 cbr 210 ------- 0 1.0 2.0 37 41
r 0.3512 5 2 cbr 210 ------- 0 1.0 2.0 13 15
+ 0.35375 1 4 cbr 210 ------- 0 1.0 2.0 41 45
- 0.35375 1 4 cbr 210 ------- 0 1.0 2.0 41 45
r 0.35418 1 4 cbr 210 ------- 0 1.0 2.0 38 42
+ 0.35418 4 5 cbr 210 ------- 0 1.0 2.0 38 42
- 0.35472 4 5 cbr 210 ------- 0 1.0 2.0 17 19
r 0.35632 4 5 cbr 210 ------- 0 1.0 2.0 15 17
+ 0.35632 5 2 cbr 210 ------- 0 1.0 2.0 15 17
- 0.35632 5 2 cbr 210 ------- 0 1.0 2.0 15 17
+ 0.3575 1 4 cbr 210 ------- 0 1.0 2.0 42 46
- 0.3575 1 4 cbr 210 ------- 0 1.0 2.0 42 46
r 0.35793 1 4 cbr 210 ------- 0 1.0 2.0 39 43
+ 0.35793 4 5 cbr 210 ------- 0 1.0 2.0 39 43
r 0.3596 5 2 cbr 210 ------- 0 1.0 2.0 14 16
+ 0.36125 1 4 cbr 210 ------- 0 1.0 2.0 43 47
- 0.36125 1 4 cbr 210 ------- 0 1.0 2.0 43 47
r 0.36168 1 4 cbr 210 ------- 0 1.0 2.0 40 44
+ 0.36168 4 5 cbr 210 ------- 0 1.0 2.0 40 44
- 0.36312 4 5 cbr 210 ------- 0 1.0 2.0 18 22
r 0.36472 4 5 cbr 210 ------- 0 1.0 2.0 16 18
+ 0.36472 5 2 cbr 210 ------- 0 1.0 2.0 16 18
- 0.36472 5 2 cbr 210 ------- 0 1.0 2.0 16 18
+ 0.365 1 4 cbr 210 ------- 0 1.0 2.0 44 48
- 0.365 1 4 cbr 210 ------- 0 1.0 2.0 44 48
r 0.36543 1 4 cbr 210 ------- 0 1.0 2.0 41 45
+ 0.36543 4 5 cbr 210 ------- 0 1.0 2.0 41 45
r 0.368 5 2 cbr 210 ------- 0 1.0 2.0 15 17
+ 0.36875 1 4 cbr 210 ------- 0 1.0 2.0 45 49
- 0.36875 1 4 cbr 210 ------- 0 1.0 2.0 45 49
r 0.36918 1 4 cbr 210 ------- 0 1.0 2.0 42 46
+ 0.36918 4 5 cbr 210 ------- 0 1.0 2.0 42 46
- 0.37152 4 5 tcp 1040 ------- 0 0.0 3.0 1 20
+ 0.3725 1 4 cbr 210 ------- 0 1.0 2.0 46 50
- 0.3725 1 4 cbr 210 ------- 0 1.0 2.0 46 50
r 0.37293 1 4 cbr 210 ------- 0 1.0 2.0 43 47
+ 0.37293 4 5 cbr 210 ------- 0 1.0 2.0 43 47
r 0.37312 4 5 cbr 210 ------- 0 1.0 2.0 17 19
+ 0.37312 5 2 cbr 210 ------- 0 1.0 2.0 17 19
- 0.37312 5 2 cbr 210 ------- 0 1.0 2.0 17 19
+ 0.37625 1 4 cbr 210 ------- 0 1.0 2.0 47 51
- 0.37625 1 4 cbr 210 ------- 0 1.0 2.0 47 51
r 0.3764 5 2 cbr 210 ------- 0 1.0 2.0 16 18
r 0.37668 1 4 cbr 210 ------- 0 1.0 2.0 44 48
+ 0.37668 4 5 cbr 210 ------- 0 1.0 2.0 44 48
+ 0.38 1 4 cbr 210 ------- 0 1.0 2.0 48 52
- 0.38 1 4 cbr 210 ------- 0 1.0 2.0 48 52
r 0.38043 1 4 cbr 210 ------- 0 1.0 2.0 45 49
+ 0.38043 4 5 cbr 210 ------- 0 1.0 2.0 45 49
r 0.38152 4 5 cbr 210 ------- 0 1.0 2.0 18 22
+ 0.38152 5 2 cbr 210 ------- 0 1.0 2.0 18 22
- 0.38152 5 2 cbr 210 ------- 0 1.0 2.0 18 22
+ 0.38375 1 4 cbr 210 ------- 0 1.0 2.0 49 53
- 0.38375 1 4 cbr 210 ------- 0 1.0 2.0 49 53
r 0.38418 1 4 cbr 210 ------- 0 1.0 2.0 46 50
+ 0.38418 4 5 cbr 210 ------- 0 1.0 2.0 46 50
r 0.3848 5 2 cbr 210 ------- 0 1.0 2.0 17 19
+ 0.3875 1 4 cbr 210 ------- 0 1.0 2.0 50 54
- 0.3875 1 4 cbr 210 ------- 0 1.0 2.0 50 54
r 0.38793 1 4 cbr 210 ------- 0 1.0 2.0 47 51
+ 0.38793 4 5 cbr 210 ------- 0 1.0 2.0 47 51
+ 0.39125 1 4 cbr 210 ------- 0 1.0 2.0 51 55
- 0.39125 1 4 cbr 210 ------- 0 1.0 2.0 51 55
r 0.39168 1 4 cbr 210 ------- 0 1.0 2.0 48 52
+ 0.39168 4 5 cbr 210 ------- 0 1.0 2.0 48 52
r 0.3932 5 2 cbr 210 ------- 0 1.0 2.0 18 22
+ 0.395 1 4 cbr 210 ------- 0 1.0 2.0 52 56
- 0.395 1 4 cbr 210 ------- 0 1.0 2.0 52 56
r 0.39543 1 4 cbr 210 ------- 0 1.0 2.0 49 53
+ 0.39543 4 5 cbr 210 ------- 0 1.0 2.0 49 53
+ 0.39875 1 4 cbr 210 ------- 0 1.0 2.0 53 57
- 0.39875 1 4 cbr 210 ------- 0 1.0 2.0 53 57
r 0.39918 1 4 cbr 210 ------- 0 1.0 2.0 50 54
+ 0.39918 4 5 cbr 210 ------- 0 1.0 2.0 50 54
+ 0.4025 1 4 cbr 210 ------- 0 1.0 2.0 54 58
- 0.4025 1 4 cbr 210 ------- 0 1.0 2.0 54 58
r 0.40293 1 4 cbr 210 ------- 0 1.0 2.0 51 55
+ 0.40293 4 5 cbr 210 ------- 0 1.0 2.0 51 55
+ 0.40625 1 4 cbr 210 ------- 0 1.0 2.0 55 59
- 0.40625 1 4 cbr 210 ------- 0 1.0 2.0 55 59
r 0.40668 1 4 cbr 210 ------- 0 1.0 2.0 52 56
+ 0.40668 4 5 cbr 210 ------- 0 1.0 2.0 52 56
+ 0.41 1 4 cbr 210 ------- 0 1.0 2.0 56 60
- 0.41 1 4 cbr 210 ------- 0 1.0 2.0 56 60
r 0.41043 1 4 cbr 210 ------- 0 1.0 2.0 53 57
+ 0.41043 4 5 cbr 210 ------- 0 1.0 2.0 53 57
- 0.41312 4 5 cbr 210 ------- 0 1.0 2.0 19 23
+ 0.41375 1 4 cbr 210 ------- 0 1.0 2.0 57 61
- 0.41375 1 4 cbr 210 ------- 0 1.0 2.0 57 61
r 0.41418 1 4 cbr 210 ------- 0 1.0 2.0 54 58
+ 0.41418 4 5 cbr 210 ------- 0 1.0 2.0 54 58
+ 0.4175 1 4 cbr 210 ------- 0 1.0 2.0 58 62
- 0.4175 1 4 cbr 210 ------- 0 1.0 2.0 58 62
r 0.41793 1 4 cbr 210 ------- 0 1.0 2.0 55 59
+ 0.41793 4 5 cbr 210 ------- 0 1.0 2.0 55 59
+ 0.42125 1 4 cbr 210 ------- 0 1.0 2.0 59 63
- 0.42125 1 4 cbr 210 ------- 0 1.0 2.0 59 63
- 0.42152 4 5 cbr 210 ------- 0 1.0 2.0 20 24
r 0.42168 1 4 cbr 210 ------- 0 1.0 2.0 56 60
+ 0.42168 4 5 cbr 210 ------- 0 1.0 2.0 56 60
r 0.42312 4 5 tcp 1040 ------- 0 0.0 3.0 1 20
+ 0.42312 5 3 tcp 1040 ------- 0 0.0 3.0 1 20
- 0.42312 5 3 tcp 1040 ------- 0 0.0 3.0 1 20
+ 0.425 1 4 cbr 210 ------- 0 1.0 2.0 60 64
- 0.425 1 4 cbr 210 ------- 0 1.0 2.0 60 64
r 0.42543 1 4 cbr 210 ------- 0 1.0 2.0 57 61
+ 0.42543 4 5 cbr 210 ------- 0 1.0 2.0 57 61
+ 0.42875 1 4 cbr 210 ------- 0 1.0 2.0 61 65
- 0.42875 1 4 cbr 210 ------- 0 1.0 2.0 61 65
r 0.42918 1 4 cbr 210 ------- 0 1.0 2.0 58 62
+ 0.42918 4 5 cbr 210 ------- 0 1.0 2.0 58 62
- 0.42992 4 5 cbr 210 ------- 0 1.0 2.0 21 25
r 0.43152 4 5 cbr 210 ------- 0 1.0 2.0 19 23
+ 0.43152 5 2 cbr 210 ------- 0 1.0 2.0 19 23
- 0.43152 5 2 cbr 210 ------- 0 1.0 2.0 19 23
+ 0.4325 1 4 cbr 210 ------- 0 1.0 2.0 62 66
- 0.4325 1 4 cbr 210 ------- 0 1.0 2.0 62 66
r 0.43293 1 4 cbr 210 ------- 0 1.0 2.0 59 63
+ 0.43293 4 5 cbr 210 ------- 0 1.0 2.0 59 63
+ 0.43625 1 4 cbr 210 ------- 0 1.0 2.0 63 67
- 0.43625 1 4 cbr 210 ------- 0 1.0 2.0 63 67
r 0.43668 1 4 cbr 210 ------- 0 1.0 2.0 60 64
+ 0.43668 4 5 cbr 210 ------- 0 1.0 2.0 60 64
- 0.43832 4 5 tcp 1040 ------- 0 0.0 3.0 2 21
r 0.43992 4 5 cbr 210 ------- 0 1.0 2.0 20 24
+ 0.43992 5 2 cbr 210 ------- 0 1.0 2.0 20 24
- 0.43992 5 2 cbr 210 ------- 0 1.0 2.0 20 24
+ 0.44 1 4 cbr 210 ------- 0 1.0 2.0 64 68
- 0.44 1 4 cbr 210 ------- 0 1.0 2.0 64 68
r 0.44043 1 4 cbr 210 ------- 0 1.0 2.0 61 65
+ 0.44043 4 5 cbr 210 ------- 0 1.0 2.0 61 65
r 0.44144 5 3 tcp 1040 ------- 0 0.0 3.0 1 20
+ 0.44144 3 5 ack 40 ------- 0 3.0 0.0 1 69
- 0.44144 3 5 ack 40 ------- 0 3.0 0.0 1 69
r 0.4432 5 2 cbr 210 ------- 0 1.0 2.0 19 23
+ 0.44375 1 4 cbr 210 ------- 0 1.0 2.0 65 70
- 0.44375 1 4 cbr 210 ------- 0 1.0 2.0 65 70
r 0.44418 1 4 cbr 210 ------- 0 1.0 2.0 62 66
+ 0.44418 4 5 cbr 210 ------- 0 1.0 2.0 62 66
+ 0.4475 1 4 cbr 210 ------- 0 1.0 2.0 66 71
- 0.4475 1 4 cbr 210 ------- 0 1.0 2.0 66 71
r 0.44793 1 4 cbr 210 ------- 0 1.0 2.0 63 67
+ 0.44793 4 5 cbr 210 ------- 0 1.0 2.0 63 67
r 0.44832 4 5 cbr 210 ------- 0 1.0 2.0 21 25
+ 0.44832 5 2 cbr 210 ------- 0 1.0 2.0 21 25
- 0.44832 5 2 cbr 210 ------- 0 1.0 2.0 21 25
+ 0.45125 1 4 cbr 210 ------- 0 1.0 2.0 67 72
- 0.45125 1 4 cbr 210 ------- 0 1.0 2.0 67 72
r 0.4516 5 2 cbr 210 ------- 0 1.0 2.0 20 24
r 0.45168 1 4 cbr 210 ------- 0 1.0 2.0 64 68
+ 0.45168 4 5 cbr 210 ------- 0 1.0 2.0 64 68
r 0.45176 3 5 ack 40 ------- 0 3.0 0.0 1 69
+ 0.45176 5 4 ack 40 ------- 0 3.0 0.0 1 69
- 0.45176 5 4 ack 40 ------- 0 3.0 0.0 1 69
+ 0.455 1 4 cbr 210 ------- 0 1.0 2.0 68 73
- 0.455 1 4 cbr 210 ------- 0 1.0 2.0 68 73
r 0.45543 1 4 cbr 210 ------- 0 1.0 2.0 65 70
+ 0.45543 4 5 cbr 210 ------- 0 1.0 2.0 65 70
+ 0.45875 1 4 cbr 210 ------- 0 1.0 2.0 69 74
- 0.45875 1 4 cbr 210 ------- 0 1.0 2.0 69 74
r 0.45918 1 4 cbr 210 ------- 0 1.0 2.0 66 71
+ 0.45918 4 5 cbr 210 ------- 0 1.0 2.0 66 71
r 0.46 5 2 cbr 210 ------- 0 1.0 2.0 21 25
+ 0.4625 1 4 cbr 210 ------- 0 1.0 2.0 70 75
- 0.4625 1 4 cbr 210 ------- 0 1.0 2.0 70 75
r 0.46293 1 4 cbr 210 ------- 0 1.0 2.0 67 72
+ 0.46293 4 5 cbr 210 ------- 0 1.0 2.0 67 72
r 0.46336 5 4 ack 40 ------- 0 3.0 0.0 1 69
+ 0.46336 4 0 ack 40 ------- 0 3.0 0.0 1 69
- 0.46336 4 0 ack 40 ------- 0 3.0 0.0 1 69
+ 0.46625 1 4 cbr 210 ------- 0 1.0 2.0 71 76
- 0.46625 1 4 cbr 210 ------- 0 1.0 2.0 71 76
r 0.46668 1 4 cbr 210 ------- 0 1.0 2.0 68 73
+ 0.46668 4 5 cbr 210 ------- 0 1.0 2.0 68 73
+ 0.47 1 4 cbr 210 ------- 0 1.0 2.0 72 77
- 0.47 1 4 cbr 210 ------- 0 1.0 2.0 72 77
r 0.47043 1 4 cbr 210 ------- 0 1.0 2.0 69 74
+ 0.47043 4 5 cbr 210 ------- 0 1.0 2.0 69 74
r 0.47368 4 0 ack 40 ------- 0 3.0 0.0 1 69
+ 0.47368 0 4 tcp 1040 ------- 0 0.0 3.0 3 78
- 0.47368 0 4 tcp 1040 ------- 0 0.0 3.0 3 78
+ 0.47368 0 4 tcp 1040 ------- 0 0.0 3.0 4 79
+ 0.47375 1 4 cbr 210 ------- 0 1.0 2.0 73 80
- 0.47375 1 4 cbr 210 ------- 0 1.0 2.0 73 80
r 0.47418 1 4 cbr 210 ------- 0 1.0 2.0 70 75
+ 0.47418 4 5 cbr 210 ------- 0 1.0 2.0 70 75
+ 0.4775 1 4 cbr 210 ------- 0 1.0 2.0 74 81
- 0.4775 1 4 cbr 210 ------- 0 1.0 2.0 74 81
r 0.47793 1 4 cbr 210 ------- 0 1.0 2.0 71 76
+ 0.47793 4 5 cbr 210 ------- 0 1.0 2.0 71 76
d 0.47793 4 5 cbr 210 ------- 0 1.0 2.0 71 76
- 0.47992 4 5 cbr 210 ------- 0 1.0 2.0 22 26
+ 0.48125 1 4 cbr 210 ------- 0 1.0 2.0 75 82
- 0.48125 1 4 cbr 210 ------- 0 1.0 2.0 75 82
r 0.48168 1 4 cbr 210 ------- 0 1.0 2.0 72 77
+ 0.48168 4 5 cbr 210 ------- 0 1.0 2.0 72 77
- 0.482 0 4 tcp 1040 ------- 0 0.0 3.0 4 79
+ 0.485 1 4 cbr 210 ------- 0 1.0 2.0 76 83
- 0.485 1 4 cbr 210 ------- 0 1.0 2.0 76 83
r 0.48543 1 4 cbr 210 ------- 0 1.0 2.0 73 80
+ 0.48543 4 5 cbr 210 ------- 0 1.0 2.0 73 80
d 0.48543 4 5 cbr 210 ------- 0 1.0 2.0 73 80
- 0.48832 4 5 cbr 210 ------- 0 1.0 2.0 23 27
+ 0.48875 1 4 cbr 210 ------- 0 1.0 2.0 77 84
- 0.48875 1 4 cbr 210 ------- 0 1.0 2.0 77 84
r 0.48918 1 4 cbr 210 ------- 0 1.0 2.0 74 81
+ 0.48918 4 5 cbr 210 ------- 0 1.0 2.0 74 81
r 0.48992 4 5 tcp 1040 ------- 0 0.0 3.0 2 21
+ 0.48992 5 3 tcp 1040 ------- 0 0.0 3.0 2 21
- 0.48992 5 3 tcp 1040 ------- 0 0.0 3.0 2 21
r 0.492 0 4 tcp 1040 ------- 0 0.0 3.0 3 78
+ 0.492 4 5 tcp 1040 ------- 0 0.0 3.0 3 78
d 0.492 4 5 tcp 1040 ------- 0 0.0 3.0 3 78
+ 0.4925 1 4 cbr 210 ------- 0 1.0 2.0 78 85
- 0.4925 1 4 cbr 210 ------- 0 1.0 2.0 78 85
r 0.49293 1 4 cbr 210 ------- 0 1.0 2.0 75 82
+ 0.49293 4 5 cbr 210 ------- 0 1.0 2.0 75 82
d 0.49293 4 5 cbr 210 ------- 0 1.0 2.0 75 82
+ 0.49625 1 4 cbr 210 ------- 0 1.0 2.0 79 86
- 0.49625 1 4 cbr 210 ------- 0 1.0 2.0 79 86
r 0.49668 1 4 cbr 210 ------- 0 1.0 2.0 76 83
+ 0.49668 4 5 cbr 210 ------- 0 1.0 2.0 76 83
d 0.49668 4 5 cbr 210 ------- 0 1.0 2.0 76 83
- 0.49672 4 5 cbr 210 ------- 0 1.0 2.0 24 28
r 0.49832 4 5 cbr 210 ------- 0 1.0 2.0 22 26
+ 0.49832 5 2 cbr 210 ------- 0 1.0 2.0 22 26
- 0.49832 5 2 cbr 210 ------- 0 1.0 2.0 22 26
+ 0.5 1 4 cbr 210 ------- 0 1.0 2.0 80 87
- 0.5 1 4 cbr 210 ------- 0 1.0 2.0 80 87
r 0.50032 0 4 tcp 1040 ------- 0 0.0 3.0 4 79
+ 0.50032 4 5 tcp 1040 ------- 0 0.0 3.0 4 79
r 0.50043 1 4 cbr 210 ------- 0 1.0 2.0 77 84
+ 0.50043 4 5 cbr 210 ------- 0 1.0 2.0 77 84
d 0.50043 4 5 cbr 210 ------- 0 1.0 2.0 77 84
+ 0.50375 1 4 cbr 210 ------- 0 1.0 2.0 81 88
- 0.50375 1 4 cbr 210 ------- 0 1.0 2.0 81 88
r 0.50418 1 4 cbr 210 ------- 0 1.0 2.0 78 85
+ 0.50418 4 5 cbr 210 ------- 0 1.0 2.0 78 85
d 0.50418 4 5 cbr 210 ------- 0 1.0 2.0 78 85
- 0.50512 4 5 cbr 210 ------- 0 1.0 2.0 25 29
r 0.50672 4 5 cbr 210 ------- 0 1.0 2.0 23 27
+ 0.50672 5 2 cbr 210 ------- 0 1.0 2.0 23 27
- 0.50672 5 2 cbr 210 ------- 0 1.0 2.0 23 27
+ 0.5075 1 4 cbr 210 ------- 0 1.0 2.0 82 89
- 0.5075 1 4 cbr 210 ------- 0 1.0 2.0 82 89
r 0.50793 1 4 cbr 210 ------- 0 1.0 2.0 79 86
+ 0.50793 4 5 cbr 210 ------- 0 1.0 2.0 79 86
r 0.50824 5 3 tcp 1040 ------- 0 0.0 3.0 2 21
+ 0.50824 3 5 ack 40 ------- 0 3.0 0.0 2 90
- 0.50824 3 5 ack 40 ------- 0 3.0 0.0 2 90
r 0.51 5 2 cbr 210 ------- 0 1.0 2.0 22 26
+ 0.51125 1 4 cbr 210 ------- 0 1.0 2.0 83 91
- 0.51125 1 4 cbr 210 ------- 0 1.0 2.0 83 91
r 0.51168 1 4 cbr 210 ------- 0 1.0 2.0 80 87
+ 0.51168 4 5 cbr 210 ------- 0 1.0 2.0 80 87
d 0.51168 4 5 cbr 210 ------- 0 1.0 2.0 80 87
- 0.51352 4 5 cbr 210 ------- 0 1.0 2.0 26 30
+ 0.515 1 4 cbr 210 ------- 0 1.0 2.0 84 92
- 0.515 1 4 cbr 210 ------- 0 1.0 2.0 84 92
r 0.51512 4 5 cbr 210 ------- 0 1.0 2.0 24 28
+ 0.51512 5 2 cbr 210 ------- 0 1.0 2.0 24 28
- 0.51512 5 2 cbr 210 ------- 0 1.0 2.0 24 28
r 0.51543 1 4 cbr 210 ------- 0 1.0 2.0 81 88
+ 0.51543 4 5 cbr 210 ------- 0 1.0 2.0 81 88
r 0.5184 5 2 cbr 210 ------- 0 1.0 2.0 23 27
r 0.51856 3 5 ack 40 ------- 0 3.0 0.0 2 90
+ 0.51856 5 4 ack 40 ------- 0 3.0 0.0 2 90
- 0.51856 5 4 ack 40 ------- 0 3.0 0.0 2 90
+ 0.51875 1 4 cbr 210 ------- 0 1.0 2.0 85 93
- 0.51875 1 4 cbr 210 ------- 0 1.0 2.0 85 93
r 0.51918 1 4 cbr 210 ------- 0 1.0 2.0 82 89
+ 0.51918 4 5 cbr 210 ------- 0 1.0 2.0 82 89
d 0.51918 4 5 cbr 210 ------- 0 1.0 2.0 82 89
- 0.52192 4 5 cbr 210 ------- 0 1.0 2.0 27 31
+ 0.5225 1 4 cbr 210 ------- 0 1.0 2.0 86 94
- 0.5225 1 4 cbr 210 ------- 0 1.0 2.0 86 94
r 0.52293 1 4 cbr 210 ------- 0 1.0 2.0 83 91
+ 0.52293 4 5 cbr 210 ------- 0 1.0 2.0 83 91
r 0.52352 4 5 cbr 210 ------- 0 1.0 2.0 25 29
+ 0.52352 5 2 cbr 210 ------- 0 1.0 2.0 25 29
- 0.52352 5 2 cbr 210 ------- 0 1.0 2.0 25 29
+ 0.52625 1 4 cbr 210 ------- 0 1.0 2.0 87 95
- 0.52625 1 4 cbr 210 ------- 0 1.0 2.0 87 95
r 0.52668 1 4 cbr 210 ------- 0 1.0 2.0 84 92
+ 0.52668 4 5 cbr 210 ------- 0 1.0 2.0 84 92
d 0.52668 4 5 cbr 210 ------- 0 1.0 2.0 84 92
r 0.5268 5 2 cbr 210 ------- 0 1.0 2.0 24 28
+ 0.53 1 4 cbr 210 ------- 0 1.0 2.0 88 96
- 0.53 1 4 cbr 210 ------- 0 1.0 2.0 88 96
r 0.53016 5 4 ack 40 ------- 0 3.0 0.0 2 90
+ 0.53016 4 0 ack 40 ------- 0 3.0 0.0 2 90
- 0.53016 4 0 ack 40 ------- 0 3.0 0.0 2 90
- 0.53032 4 5 cbr 210 ------- 0 1.0 2.0 28 32
r 0.53043 1 4 cbr 210 ------- 0 1.0 2.0 85 93
+ 0.53043 4 5 cbr 210 ------- 0 1.0 2.0 85 93
r 0.53192 4 5 cbr 210 ------- 0 1.0 2.0 26 30
+ 0.53192 5 2 cbr 210 ------- 0 1.0 2.0 26 30
- 0.53192 5 2 cbr 210 ------- 0 1.0 2.0 26 30
+ 0.53375 1 4 cbr 210 ------- 0 1.0 2.0 89 97
- 0.53375 1 4 cbr 210 ------- 0 1.0 2.0 89 97
r 0.53418 1 4 cbr 210 ------- 0 1.0 2.0 86 94
+ 0.53418 4 5 cbr 210 ------- 0 1.0 2.0 86 94
d 0.53418 4 5 cbr 210 ------- 0 1.0 2.0 86 94
r 0.5352 5 2 cbr 210 ------- 0 1.0 2.0 25 29
+ 0.5375 1 4 cbr 210 ------- 0 1.0 2.0 90 98
- 0.5375 1 4 cbr 210 ------- 0 1.0 2.0 90 98
r 0.53793 1 4 cbr 210 ------- 0 1.0 2.0 87 95
+ 0.53793 4 5 cbr 210 ------- 0 1.0 2.0 87 95
d 0.53793 4 5 cbr 210 ------- 0 1.0 2.0 87 95
- 0.53872 4 5 cbr 210 ------- 0 1.0 2.0 29 33
r 0.54032 4 5 cbr 210 ------- 0 1.0 2.0 27 31
+ 0.54032 5 2 cbr 210 ------- 0 1.0 2.0 27 31
- 0.54032 5 2 cbr 210 ------- 0 1.0 2.0 27 31
r 0.54048 4 0 ack 40 ------- 0 3.0 0.0 2 90
+ 0.54048 0 4 tcp 1040 ------- 0 0.0 3.0 5 99
- 0.54048 0 4 tcp 1040 ------- 0 0.0 3.0 5 99
+ 0.54048 0 4 tcp 1040 ------- 0 0.0 3.0 6 100
+ 0.54125 1 4 cbr 210 ------- 0 1.0 2.0 91 101
- 0.54125 1 4 cbr 210 ------- 0 1.0 2.0 91 101
r 0.54168 1 4 cbr 210 ------- 0 1.0 2.0 88 96
+ 0.54168 4 5 cbr 210 ------- 0 1.0 2.0 88 96
r 0.5436 5 2 cbr 210 ------- 0 1.0 2.0 26 30
+ 0.545 1 4 cbr 210 ------- 0 1.0 2.0 92 102
- 0.545 1 4 cbr 210 ------- 0 1.0 2.0 92 102
r 0.54543 1 4 cbr 210 ------- 0 1.0 2.0 89 97
+ 0.54543 4 5 cbr 210 ------- 0 1.0 2.0 89 97
d 0.54543 4 5 cbr 210 ------- 0 1.0 2.0 89 97
- 0.54712 4 5 cbr 210 ------- 0 1.0 2.0 30 34
r 0.54872 4 5 cbr 210 ------- 0 1.0 2.0 28 32
+ 0.54872 5 2 cbr 210 ------- 0 1.0 2.0 28 32
- 0.54872 5 2 cbr 210 ------- 0 1.0 2.0 28 32
+ 0.54875 1 4 cbr 210 ------- 0 1.0 2.0 93 103
- 0.54875 1 4 cbr 210 ------- 0 1.0 2.0 93 103
- 0.5488 0 4 tcp 1040 ------- 0 0.0 3.0 6 100
r 0.54918 1 4 cbr 210 ------- 0 1.0 2.0 90 98
+ 0.54918 4 5 cbr 210 ------- 0 1.0 2.0 90 98
r 0.552 5 2 cbr 210 ------- 0 1.0 2.0 27 31
+ 0.5525 1 4 cbr 210 ------- 0 1.0 2.0 94 104
- 0.5525 1 4 cbr 210 ------- 0 1.0 2.0 94 104
r 0.55293 1 4 cbr 210 ------- 0 1.0 2.0 91 101
+ 0.55293 4 5 cbr 210 ------- 0 1.0 2.0 91 101
d 0.55293 4 5 cbr 210 ------- 0 1.0 2.0 91 101
- 0.55552 4 5 cbr 210 ------- 0 1.0 2.0 31 35
+ 0.55625 1 4 cbr 210 ------- 0 1.0 2.0 95 105
- 0.55625 1 4 cbr 210 ------- 0 1.0 2.0 95 105
r 0.55668 1 4 cbr 210 ------- 0 1.0 2.0 92 102
+ 0.55668 4 5 cbr 210 ------- 0 1.0 2.0 92 102
r 0.55712 4 5 cbr 210 ------- 0 1.0 2.0 29 33
+ 0.55712 5 2 cbr 210 ------- 0 1.0 2.0 29 33
- 0.55712 5 2 cbr 210 ------- 0 1.0 2.0 29 33
r 0.5588 0 4 tcp 1040 ------- 0 0.0 3.0 5 99
+ 0.5588 4 5 tcp 1040 ------- 0 0.0 3.0 5 99
d 0.5588 4 5 tcp 1040 ------- 0 0.0 3.0 5 99
+ 0.56 1 4 cbr 210 ------- 0 1.0 2.0 96 106
- 0.56 1 4 cbr 210 ------- 0 1.0 2.0 96 106
r 0.5604 5 2 cbr 210 ------- 0 1.0 2.0 28 32
r 0.56043 1 4 cbr 210 ------- 0 1.0 2.0 93 103
+ 0.56043 4 5 cbr 210 ------- 0 1.0 2.0 93 103
d 0.56043 4 5 cbr 210 ------- 0 1.0 2.0 93 103
+ 0.56375 1 4 cbr 210 ------- 0 1.0 2.0 97 107
- 0.56375 1 4 cbr 210 ------- 0 1.0 2.0 97 107
- 0.56392 4 5 cbr 210 ------- 0 1.0 2.0 32 36
r 0.56418 1 4 cbr 210 ------- 0 1.0 2.0 94 104
+ 0.56418 4 5 cbr 210 ------- 0 1.0 2.0 94 104
r 0.56552 4 5 cbr 210 ------- 0 1.0 2.0 30 34
+ 0.56552 5 2 cbr 210 ------- 0 1.0 2.0 30 34
- 0.56552 5 2 cbr 210 ------- 0 1.0 2.0 30 34
r 0.56712 0 4 tcp 1040 ------- 0 0.0 3.0 6 100
+ 0.56712 4 5 tcp 1040 ------- 0 0.0 3.0 6 100
d 0.56712 4 5 tcp 1040 ------- 0 0.0 3.0 6 100
+ 0.5675 1 4 cbr 210 ------- 0 1.0 2.0 98 108
- 0.5675 1 4 cbr 210 ------- 0 1.0 2.0 98 108
r 0.56793 1 4 cbr 210 ------- 0 1.0 2.0 95 105
+ 0.56793 4 5 cbr 210 ------- 0 1.0 2.0 95 105
d 0.56793 4 5 cbr 210 ------- 0 1.0 2.0 95 105
r 0.5688 5 2 cbr 210 ------- 0 1.0 2.0 29 33
+ 0.57125 1 4 cbr 210 ------- 0 1.0 2.0 99 109
- 0.57125 1 4 cbr 210 ------- 0 1.0 2.0 99 109
r 0.57168 1 4 cbr 210 ------- 0 1.0 2.0 96 106
+ 0.57168 4 5 cbr 210 ------- 0 1.0 2.0 96 106
d 0.57168 4 5 cbr 210 ------- 0 1.0 2.0 96 106
- 0.57232 4 5 cbr 210 ------- 0 1.0 2.0 33 37
r 0.57392 4 5 cbr 210 ------- 0 1.0 2.0 31 35
+ 0.57392 5 2 cbr 210 ------- 0 1.0 2.0 31 35
- 0.57392 5 2 cbr 210 ------- 0 1.0 2.0 31 35
+ 0.575 1 4 cbr 210 ------- 0 1.0 2.0 100 110
- 0.575 1 4 cbr 210 ------- 0 1.0 2.0 100 110
r 0.57543 1 4 cbr 210 ------- 0 1.0 2.0 97 107
+ 0.57543 4 5 cbr 210 ------- 0 1.0 2.0 97 107
r 0.5772 5 2 cbr 210 ------- 0 1.0 2.0 30 34
+ 0.57875 1 4 cbr 210 ------- 0 1.0 2.0 101 111
- 0.57875 1 4 cbr 210 ------- 0 1.0 2.0 101 111
r 0.57918 1 4 cbr 210 ------- 0 1.0 2.0 98 108
+ 0.57918 4 5 cbr 210 ------- 0 1.0 2.0 98 108
d 0.57918 4 5 cbr 210 ------- 0 1.0 2.0 98 108
- 0.58072 4 5 cbr 210 ------- 0 1.0 2.0 34 38
r 0.58232 4 5 cbr 210 ------- 0 1.0 2.0 32 36
+ 0.58232 5 2 cbr 210 ------- 0 1.0 2.0 32 36
- 0.58232 5 2 cbr 210 ------- 0 1.0 2.0 32 36
+ 0.5825 1 4 cbr 210 ------- 0 1.0 2.0 102 112
- 0.5825 1 4 cbr 210 ------- 0 1.0 2.0 102 112
r 0.58293 1 4 cbr 210 ------- 0 1.0 2.0 99 109
+ 0.58293 4 5 cbr 210 ------- 0 1.0 2.0 99 109