+ 0.2 0 4 tcp 40 ------- 0 0.0 3.0 0 0
- 0.2 0 4 tcp 40 ------- 0 0.0 3.0 0 0
+ 0.2 1 4 cbr 210 ------- 0 1.0 2.0 0 1
- 0.2 1 4 cbr 210 ------- 0 1.0 2.0 0 1
+ 0.20375 1 4 cbr 210 ------- 0 1.0 2.0 1 2
- 0.20375 1 4 cbr 210 ------- 0 1.0 2.0 1 2
+ 0.2075 1 4 cbr 210 ------- 0 1.0 2.0 2 3
- 0.2075 1 4 cbr 210 ------- 0 1.0 2.0 2 3
r 0.21032 0 4 tcp 40 ------- 0 0.0 3.0 0 0
+ 0.21032 4 5 tcp 40 ------- 0 0.0 3.0 0 0
- 0.21032 4 5 tcp 40 ------- 0 0.0 3.0 0 0
+ 0.21125 1 4 cbr 210 ------- 0 1.0 2.0 3 4
- 0.21125 1 4 cbr 210 ------- 0 1.0 2.0 3 4
r 0.21168 1 4 cbr 210 ------- 0 1.0 2.0 0 1
+ 0.21168 4 5 cbr 210 ------- 0 1.0 2.0 0 1
- 0.21192 4 5 cbr 210 ------- 0 1.0 2.0 0 1
+ 0.215 1 4 cbr 210 ------- 0 1.0 2.0 4 5
- 0.215 1 4 cbr 210 ------- 0 1.0 2.0 4 5
r 0.21543 1 4 cbr 210 ------- 0 1.0 2.0 1 2
+ 0.21543 4 5 cbr 210 ------- 0 1.0 2.0 1 2
+ 0.21875 1 4 cbr 210 ------- 0 1.0 2.0 5 6
- 0.21875 1 4 cbr 210 ------- 0 1.0 2.0 5 6
r 0.21918 1 4 cbr 210 ------- 0 1.0 2.0 2 3
+ 0.21918 4 5 cbr 210 ------- 0 1.0 2.0 2 3
- 0.22032 4 5 cbr 210 ------- 0 1.0 2.0 1 2
r 0.22192 4 5 tcp 40 ------- 0 0.0 3.0 0 0
+ 0.22192 5 3 tcp 40 ------- 0 0.0 3.0 0 0
- 0.22192 5 3 tcp 40 ------- 0 0.0 3.0 0 0
+ 0.2225 1 4 cbr 210 ------- 0 1.0 2.0 6 7
- 0.2225 1 4 cbr 210 ------- 0 1.0 2.0 6 7
r 0.22293 1 4 cbr 210 ------- 0 1.0 2.0 3 4
+ 0.22293 4 5 cbr 210 ------- 0 1.0 2.0 3 4
+ 0.22625 1 4 cbr 210 ------- 0 1.0 2.0 7 8
- 0.22625 1 4 cbr 210 ------- 0 1.0 2.0 7 8
r 0.22668 1 4 cbr 210 ------- 0 1.0 2.0 4 5
+ 0.22668 4 5 cbr 210 ------- 0 1.0 2.0 4 5
- 0.22872 4 5 cbr 210 ------- 0 1.0 2.0 2 3
+ 0.23 1 4 cbr 210 ------- 0 1.0 2.0 8 9
- 0.23 1 4 cbr 210 ------- 0 1.0 2.0 8 9
r 0.23032 4 5 cbr 210 ------- 0 1.0 2.0 0 1
+ 0.23032 5 2 cbr 210 ------- 0 1.0 2.0 0 1
- 0.23032 5 2 cbr 210 ------- 0 1.0 2.0 0 1
r 0.23043 1 4 cbr 210 ------- 0 1.0 2.0 5 6
+ 0.23043 4 5 cbr 210 ------- 0 1.0 2.0 5 6
r 0.23224 5 3 tcp 40 ------- 0 0.0 3.0 0 0
+ 0.23224 3 5 ack 40 ------- 0 3.0 0.0 0 10
- 0.23224 3 5 ack 40 ------- 0 3.0 0.0 0 10
+ 0.23375 1 4 cbr 210 ------- 0 1.0 2.0 9 11
- 0.23375 1 4 cbr 210 ------- 0 1.0 2.0 9 11
r 0.23418 1 4 cbr 210 ------- 0 1.0 2.0 6 7
+ 0.23418 4 5 cbr 210 ------- 0 1.0 2.0 6 7
- 0.23712 4 5 cbr 210 ------- 0 1.0 2.0 3 4
+ 0.2375 1 4 cbr 210 ------- 0 1.0 2.0 10 12
- 0.2375 1 4 cbr 210 ------- 0 1.0 2.0 10 12
r 0.23793 1 4 cbr 210 ------- 0 1.0 2.0 7 8
+ 0.23793 4 5 cbr 210 ------- 0 1.0 2.0 7 8
r 0.23872 4 5 cbr 210 ------- 0 1.0 2.0 1 2
+ 0.23872 5 2 cbr 210 ------- 0 1.0 2.0 1 2
- 0.23872 5 2 cbr 210 ------- 0 1.0 2.0 1 2
+ 0.24125 1 4 cbr 210 ------- 0 1.0 2.0 11 13
- 0.24125 1 4 cbr 210 ------- 0 1.0 2.0 11 13
r 0.24168 1 4 cbr 210 ------- 0 1.0 2.0 8 9
+ 0.24168 4 5 cbr 210 ------- 0 1.0 2.0 8 9
d 0.24168 4 5 cbr 210 ------- 0 1.0 2.0 8 9
r 0.242 5 2 cbr 210 ------- 0 1.0 2.0 0 1
r 0.24256 3 5 ack 40 ------- 0 3.0 0.0 0 10
+ 0.24256 5 4 ack 40 ------- 0 3.0 0.0 0 10
- 0.24256 5 4 ack 40 ------- 0 3.0 0.0 0 10
+ 0.245 1 4 cbr 210 ------- 0 1.0 2.0 12 14
- 0.245 1 4 cbr 210 ------- 0 1.0 2.0 12 14
r 0.24543 1 4 cbr 210 ------- 0 1.0 2.0 9 11
+ 0.24543 4 5 cbr 210 ------- 0 1.0 2.0 9 11
d 0.24543 4 5 cbr 210 ------- 0 1.0 2.0 9 11
- 0.24552 4 5 cbr 210 ------- 0 1.0 2.0 4 5
r 0.24712 4 5 cbr 210 ------- 0 1.0 2.0 2 3
+ 0.24712 5 2 cbr 210 ------- 0 1.0 2.0 2 3
- 0.24712 5 2 cbr 210 ------- 0 1.0 2.0 2 3
+ 0.24875 1 4 cbr 210 ------- 0 1.0 2.0 13 15
- 0.24875 1 4 cbr 210 ------- 0 1.0 2.0 13 15
r 0.24918 1 4 cbr 210 ------- 0 1.0 2.0 10 12
+ 0.24918 4 5 cbr 210 ------- 0 1.0 2.0 10 12
r 0.2504 5 2 cbr 210 ------- 0 1.0 2.0 1 2
+ 0.2525 1 4 cbr 210 ------- 0 1.0 2.0 14 16
- 0.2525 1 4 cbr 210 ------- 0 1.0 2.0 14 16
r 0.25293 1 4 cbr 210 ------- 0 1.0 2.0 11 13
+ 0.25293 4 5 cbr 210 ------- 0 1.0 2.0 11 13
d 0.25293 4 5 cbr 210 ------- 0 1.0 2.0 11 13
- 0.25392 4 5 cbr 210 ------- 0 1.0 2.0 5 6
r 0.25416 5 4 ack 40 ------- 0 3.0 0.0 0 10
+ 0.25416 4 0 ack 40 ------- 0 3.0 0.0 0 10
- 0.25416 4 0 ack 40 ------- 0 3.0 0.0 0 10
r 0.25552 4 5 cbr 210 ------- 0 1.0 2.0 3 4
+ 0.25552 5 2 cbr 210 ------- 0 1.0 2.0 3 4
- 0.25552 5 2 cbr 210 ------- 0 1.0 2.0 3 4
+ 0.25625 1 4 cbr 210 ------- 0 1.0 2.0 15 17
- 0.25625 1 4 cbr 210 ------- 0 1.0 2.0 15 17
r 0.25668 1 4 cbr 210 ------- 0 1.0 2.0 12 14
+ 0.25668 4 5 cbr 210 ------- 0 1.0 2.0 12 14
r 0.2588 5 2 cbr 210 ------- 0 1.0 2.0 2 3
+ 0.26 1 4 cbr 210 ------- 0 1.0 2.0 16 18
- 0.26 1 4 cbr 210 ------- 0 1.0 2.0 16 18
r 0.26043 1 4 cbr 210 ------- 0 1.0 2.0 13 15
+ 0.26043 4 5 cbr 210 ------- 0 1.0 2.0 13 15
d 0.26043 4 5 cbr 210 ------- 0 1.0 2.0 13 15
- 0.26232 4 5 cbr 210 ------- 0 1.0 2.0 6 7
+ 0.26375 1 4 cbr 210 ------- 0 1.0 2.0 17 19
- 0.26375 1 4 cbr 210 ------- 0 1.0 2.0 17 19
r 0.26392 4 5 cbr 210 ------- 0 1.0 2.0 4 5
+ 0.26392 5 2 cbr 210 ------- 0 1.0 2.0 4 5
- 0.26392 5 2 cbr 210 ------- 0 1.0 2.0 4 5
r 0.26418 1 4 cbr 210 ------- 0 1.0 2.0 14 16
+ 0.26418 4 5 cbr 210 ------- 0 1.0 2.0 14 16
r 0.26448 4 0 ack 40 ------- 0 3.0 0.0 0 10
+ 0.26448 0 4 tcp 1040 ------- 0 0.0 3.0 1 20
- 0.26448 0 4 tcp 1040 ------- 0 0.0 3.0 1 20
+ 0.26448 0 4 tcp 1040 ------- 0 0.0 3.0 2 21
r 0.2672 5 2 cbr 210 ------- 0 1.0 2.0 3 4
+ 0.2675 1 4 cbr 210 ------- 0 1.0 2.0 18 22
- 0.2675 1 4 cbr 210 ------- 0 1.0 2.0 18 22
r 0.26793 1 4 cbr 210 ------- 0 1.0 2.0 15 17
+ 0.26793 4 5 cbr 210 ------- 0 1.0 2.0 15 17
d 0.26793 4 5 cbr 210 ------- 0 1.0 2.0 15 17
- 0.27072 4 5 cbr 210 ------- 0 1.0 2.0 7 8
+ 0.27125 1 4 cbr 210 ------- 0 1.0 2.0 19 23
- 0.27125 1 4 cbr 210 ------- 0 1.0 2.0 19 23
r 0.27168 1 4 cbr 210 ------- 0 1.0 2.0 16 18
+ 0.27168 4 5 cbr 210 ------- 0 1.0 2.0 16 18
r 0.27232 4 5 cbr 210 ------- 0 1.0 2.0 5 6
+ 0.27232 5 2 cbr 210 ------- 0 1.0 2.0 5 6
- 0.27232 5 2 cbr 210 ------- 0 1.0 2.0 5 6
- 0.2728 0 4 tcp 1040 ------- 0 0.0 3.0 2 21
+ 0.275 1 4 cbr 210 ------- 0 1.0 2.0 20 24
- 0.275 1 4 cbr 210 ------- 0 1.0 2.0 20 24
r 0.27543 1 4 cbr 210 ------- 0 1.0 2.0 17 19
+ 0.27543 4 5 cbr 210 ------- 0 1.0 2.0 17 19
d 0.27543 4 5 cbr 210 ------- 0 1.0 2.0 17 19
r 0.2756 5 2 cbr 210 ------- 0 1.0 2.0 4 5
+ 0.27875 1 4 cbr 210 ------- 0 1.0 2.0 21 25
- 0.27875 1 4 cbr 210 ------- 0 1.0 2.0 21 25
- 0.27912 4 5 cbr 210 ------- 0 1.0 2.0 10 12
r 0.27918 1 4 cbr 210 ------- 0 1.0 2.0 18 22
+ 0.27918 4 5 cbr 210 ------- 0 1.0 2.0 18 22
r 0.28072 4 5 cbr 210 ------- 0 1.0 2.0 6 7
+ 0.28072 5 2 cbr 210 ------- 0 1.0 2.0 6 7
- 0.28072 5 2 cbr 210 ------- 0 1.0 2.0 6 7
+ 0.2825 1 4 cbr 210 ------- 0 1.0 2.0 22 26
- 0.2825 1 4 cbr 210 ------- 0 1.0 2.0 22 26
r 0.2828 0 4 tcp 1040 ------- 0 0.0 3.0 1 20
+ 0.2828 4 5 tcp 1040 ------- 0 0.0 3.0 1 20
d 0.2828 4 5 tcp 1040 ------- 0 0.0 3.0 1 20
r 0.28293 1 4 cbr 210 ------- 0 1.0 2.0 19 23
+ 0.28293 4 5 cbr 210 ------- 0 1.0 2.0 19 23
d 0.28293 4 5 cbr 210 ------- 0 1.0 2.0 19 23
r 0.284 5 2 cbr 210 ------- 0 1.0 2.0 5 6
+ 0.28625 1 4 cbr 210 ------- 0 1.0 2.0 23 27
- 0.28625 1 4 cbr 210 ------- 0 1.0 2.0 23 27
r 0.28668 1 4 cbr 210 ------- 0 1.0 2.0 20 24
+ 0.28668 4 5 cbr 210 ------- 0 1.0 2.0 20 24
d 0.28668 4 5 cbr 210 ------- 0 1.0 2.0 20 24
- 0.28752 4 5 cbr 210 ------- 0 1.0 2.0 12 14
r 0.28912 4 5 cbr 210 ------- 0 1.0 2.0 7 8
+ 0.28912 5 2 cbr 210 ------- 0 1.0 2.0 7 8
- 0.28912 5 2 cbr 210 ------- 0 1.0 2.0 7 8
+ 0.29 1 4 cbr 210 ------- 0 1.0 2.0 24 28
- 0.29 1 4 cbr 210 ------- 0 1.0 2.0 24 28
r 0.29043 1 4 cbr 210 ------- 0 1.0 2.0 21 25
+ 0.29043 4 5 cbr 210 ------- 0 1.0 2.0 21 25
r 0.29112 0 4 tcp 1040 ------- 0 0.0 3.0 2 21
+ 0.29112 4 5 tcp 1040 ------- 0 0.0 3.0 2 21
d 0.29112 4 5 tcp 1040 ------- 0 0.0 3.0 2 21
r 0.2924 5 2 cbr 210 ------- 0 1.0 2.0 6 7
+ 0.29375 1 4 cbr 210 ------- 0 1.0 2.0 25 29
- 0.29375 1 4 cbr 210 ------- 0 1.0 2.0 25 29
r 0.29418 1 4 cbr 210 ------- 0 1.0 2.0 22 26
+ 0.29418 4 5 cbr 210 ------- 0 1.0 2.0 22 26
d 0.29418 4 5 cbr 210 ------- 0 1.0 2.0 22 26
- 0.29592 4 5 cbr 210 ------- 0 1.0 2.0 14 16
+ 0.2975 1 4 cbr 210 ------- 0 1.0 2.0 26 30
- 0.2975 1 4 cbr 210 ------- 0 1.0 2.0 26 30
r 0.29752 4 5 cbr 210 ------- 0 1.0 2.0 10 12
+ 0.29752 5 2 cbr 210 ------- 0 1.0 2.0 10 12
- 0.29752 5 2 cbr 210 ------- 0 1.0 2.0 10 12
r 0.29793 1 4 cbr 210 ------- 0 1.0 2.0 23 27
+ 0.29793 4 5 cbr 210 ------- 0 1.0 2.0 23 27
r 0.3008 5 2 cbr 210 ------- 0 1.0 2.0 7 8
+ 0.30125 1 4 cbr 210 ------- 0 1.0 2.0 27 31
- 0.30125 1 4 cbr 210 ------- 0 1.0 2.0 27 31
r 0.30168 1 4 cbr 210 ------- 0 1.0 2.0 24 28
+ 0.30168 4 5 cbr 210 ------- 0 1.0 2.0 24 28
d 0.30168 4 5 cbr 210 ------- 0 1.0 2.0 24 28
- 0.30432 4 5 cbr 210 ------- 0 1.0 2.0 16 18
+ 0.305 1 4 cbr 210 ------- 0 1.0 2.0 28 32
- 0.305 1 4 cbr 210 ------- 0 1.0 2.0 28 32
r 0.30543 1 4 cbr 210 ------- 0 1.0 2.0 25 29
+ 0.30543 4 5 cbr 210 ------- 0 1.0 2.0 25 29
r 0.30592 4 5 cbr 210 ------- 0 1.0 2.0 12 14
+ 0.30592 5 2 cbr 210 ------- 0 1.0 2.0 12 14
- 0.30592 5 2 cbr 210 ------- 0 1.0 2.0 12 14
+ 0.30875 1 4 cbr 210 ------- 0 1.0 2.0 29 33
- 0.30875 1 4 cbr 210 ------- 0 1.0 2.0 29 33
r 0.30918 1 4 cbr 210 ------- 0 1.0 2.0 26 30
+ 0.30918 4 5 cbr 210 ------- 0 1.0 2.0 26 30
d 0.30918 4 5 cbr 210 ------- 0 1.0 2.0 26 30
r 0.3092 5 2 cbr 210 ------- 0 1.0 2.0 10 12
+ 0.3125 1 4 cbr 210 ------- 0 1.0 2.0 30 34
- 0.3125 1 4 cbr 210 ------- 0 1.0 2.0 30 34
- 0.31272 4 5 cbr 210 ------- 0 1.0 2.0 18 22
r 0.31293 1 4 cbr 210 ------- 0 1.0 2.0 27 31
+ 0.31293 4 5 cbr 210 ------- 0 1.0 2.0 27 31
r 0.31432 4 5 cbr 210 ------- 0 1.0 2.0 14 16
+ 0.31432 5 2 cbr 210 ------- 0 1.0 2.0 14 16
- 0.31432 5 2 cbr 210 ------- 0 1.0 2.0 14 16
+ 0.31625 1 4 cbr 210 ------- 0 1.0 2.0 31 35
- 0.31625 1 4 cbr 210 ------- 0 1.0 2.0 31 35
r 0.31668 1 4 cbr 210 ------- 0 1.0 2.0 28 32
+ 0.31668 4 5 cbr 210 ------- 0 1.0 2.0 28 32
d 0.31668 4 5 cbr 210 ------- 0 1.0 2.0 28 32
r 0.3176 5 2 cbr 210 ------- 0 1.0 2.0 12 14
+ 0.32 1 4 cbr 210 ------- 0 1.0 2.0 32 36
- 0.32 1 4 cbr 210 ------- 0 1.0 2.0 32 36
r 0.32043 1 4 cbr 210 ------- 0 1.0 2.0 29 33
+ 0.32043 4 5 cbr 210 ------- 0 1.0 2.0 29 33
d 0.32043 4 5 cbr 210 ------- 0 1.0 2.0 29 33
- 0.32112 4 5 cbr 210 ------- 0 1.0 2.0 21 25
r 0.32272 4 5 cbr 210 ------- 0 1.0 2.0 16 18
+ 0.32272 5 2 cbr 210 ------- 0 1.0 2.0 16 18
- 0.32272 5 2 cbr 210 ------- 0 1.0 2.0 16 18
+ 0.32375 1 4 cbr 210 ------- 0 1.0 2.0 33 37
- 0.32375 1 4 cbr 210 ------- 0 1.0 2.0 33 37
r 0.32418 1 4 cbr 210 ------- 0 1.0 2.0 30 34
+ 0.32418 4 5 cbr 210 ------- 0 1.0 2.0 30 34
r 0.326 5 2 cbr 210 ------- 0 1.0 2.0 14 16
+ 0.3275 1 4 cbr 210 ------- 0 1.0 2.0 34 38
- 0.3275 1 4 cbr 210 ------- 0 1.0 2.0 34 38
r 0.32793 1 4 cbr 210 ------- 0 1.0 2.0 31 35
+ 0.32793 4 5 cbr 210 ------- 0 1.0 2.0 31 35
d 0.32793 4 5 cbr 210 ------- 0 1.0 2.0 31 35
- 0.32952 4 5 cbr 210 ------- 0 1.0 2.0 23 27
r 0.33112 4 5 cbr 210 ------- 0 1.0 2.0 18 22
+ 0.33112 5 2 cbr 210 ------- 0 1.0 2.0 18 22
- 0.33112 5 2 cbr 210 ------- 0 1.0 2.0 18 22
+ 0.33125 1 4 cbr 210 ------- 0 1.0 2.0 35 39
- 0.33125 1 4 cbr 210 ------- 0 1.0 2.0 35 39
r 0.33168 1 4 cbr 210 ------- 0 1.0 2.0 32 36
+ 0.33168 4 5 cbr 210 ------- 0 1.0 2.0 32 36
r 0.3344 5 2 cbr 210 ------- 0 1.0 2.0 16 18
+ 0.335 1 4 cbr 210 ------- 0 1.0 2.0 36 40
- 0.335 1 4 cbr 210 ------- 0 1.0 2.0 36 40
r 0.33543 1 4 cbr 210 ------- 0 1.0 2.0 33 37
+ 0.33543 4 5 cbr 210 ------- 0 1.0 2.0 33 37
d 0.33543 4 5 cbr 210 ------- 0 1.0 2.0 33 37
- 0.33792 4 5 cbr 210 ------- 0 1.0 2.0 25 29
+ 0.33875 1 4 cbr 210 ------- 0 1.0 2.0 37 41
- 0.33875 1 4 cbr 210 ------- 0 1.0 2.0 37 41
r 0.33918 1 4 cbr 210 ------- 0 1.0 2.0 34 38
+ 0.33918 4 5 cbr 210 ------- 0 1.0 2.0 34 38
r 0.33952 4 5 cbr 210 ------- 0 1.0 2.0 21 25
+ 0.33952 5 2 cbr 210 ------- 0 1.0 2.0 21 25
- 0.33952 5 2 cbr 210 ------- 0 1.0 2.0 21 25
+ 0.3425 1 4 cbr 210 ------- 0 1.0 2.0 38 42
- 0.3425 1 4 cbr 210 ------- 0 1.0 2.0 38 42
r 0.3428 5 2 cbr 210 ------- 0 1.0 2.0 18 22
r 0.34293 1 4 cbr 210 ------- 0 1.0 2.0 35 39
+ 0.34293 4 5 cbr 210 ------- 0 1.0 2.0 35 39
d 0.34293 4 5 cbr 210 ------- 0 1.0 2.0 35 39
+ 0.34625 1 4 cbr 210 ------- 0 1.0 2.0 39 43
- 0.34625 1 4 cbr 210 ------- 0 1.0 2.0 39 43
- 0.34632 4 5 cbr 210 ------- 0 1.0 2.0 27 31
r 0.34668 1 4 cbr 210 ------- 0 1.0 2.0 36 40
+ 0.34668 4 5 cbr 210 ------- 0 1.0 2.0 36 40
r 0.34792 4 5 cbr 210 ------- 0 1.0 2.0 23 27
+ 0.34792 5 2 cbr 210 ------- 0 1.0 2.0 23 27
- 0.34792 5 2 cbr 210 ------- 0 1.0 2.0 23 27
+ 0.35 1 4 cbr 210 ------- 0 1.0 2.0 40 44
- 0.35 1 4 cbr 210 ------- 0 1.0 2.0 40 44
r 0.35043 1 4 cbr 210 ------- 0 1.0 2.0 37 41
+ 0.35043 4 5 cbr 210 ------- 0 1.0 2.0 37 41
d 0.35043 4 5 cbr 210 ------- 0 1.0 2.0 37 41
r 0.3512 5 2 cbr 210 ------- 0 1.0 2.0 21 25
+ 0.35375 1 4 cbr 210 ------- 0 1.0 2.0 41 45
- 0.35375 1 4 cbr 210 ------- 0 1.0 2.0 41 45
r 0.35418 1 4 cbr 210 ------- 0 1.0 2.0 38 42
+ 0.35418 4 5 cbr 210 ------- 0 1.0 2.0 38 42
d 0.35418 4 5 cbr 210 ------- 0 1.0 2.0 38 42
- 0.35472 4 5 cbr 210 ------- 0 1.0 2.0 30 34
r 0.35632 4 5 cbr 210 ------- 0 1.0 2.0 25 29
+ 0.35632 5 2 cbr 210 ------- 0 1.0 2.0 25 29
- 0.35632 5 2 cbr 210 ------- 0 1.0 2.0 25 29
+ 0.3575 1 4 cbr 210 ------- 0 1.0 2.0 42 46
- 0.3575 1 4 cbr 210 ------- 0 1.0 2.0 42 46
r 0.35793 1 4 cbr 210 ------- 0 1.0 2.0 39 43
+ 0.35793 4 5 cbr 210 ------- 0 1.0 2.0 39 43
r 0.3596 5 2 cbr 210 ------- 0 1.0 2.0 23 27
+ 0.36125 1 4 cbr 210 ------- 0 1.0 2.0 43 47
- 0.36125 1 4 cbr 210 ------- 0 1.0 2.0 43 47
r 0.36168 1 4 cbr 210 ------- 0 1.0 2.0 40 44
+ 0.36168 4 5 cbr 210 ------- 0 1.0 2.0 40 44
d 0.36168 4 5 cbr 210 ------- 0 1.0 2.0 40 44
- 0.36312 4 5 cbr 210 ------- 0 1.0 2.0 32 36
r 0.36472 4 5 cbr 210 ------- 0 1.0 2.0 27 31
+ 0.36472 5 2 cbr 210 ------- 0 1.0 2.0 27 31
- 0.36472 5 2 cbr 210 ------- 0 1.0 2.0 27 31
+ 0.365 1 4 cbr 210 ------- 0 1.0 2.0 44 48
- 0.365 1 4 cbr 210 ------- 0 1.0 2.0 44 48
r 0.36543 1 4 cbr 210 ------- 0 1.0 2.0 41 45
+ 0.36543 4 5 cbr 210 ------- 0 1.0 2.0 41 45
r 0.368 5 2 cbr 210 ------- 0 1.0 2.0 25 29
+ 0.36875 1 4 cbr 210 ------- 0 1.0 2.0 45 49
- 0.36875 1 4 cbr 210 ------- 0 1.0 2.0 45 49
r 0.36918 1 4 cbr 210 ------- 0 1.0 2.0 42 46
+ 0.36918 4 5 cbr 210 ------- 0 1.0 2.0 42 46
d 0.36918 4 5 cbr 210 ------- 0 1.0 2.0 42 46
- 0.37152 4 5 cbr 210 ------- 0 1.0 2.0 34 38
+ 0.3725 1 4 cbr 210 ------- 0 1.0 2.0 46 50
- 0.3725 1 4 cbr 210 ------- 0 1.0 2.0 46 50
r 0.37293 1 4 cbr 210 ------- 0 1.0 2.0 43 47
+ 0.37293 4 5 cbr 210 ------- 0 1.0 2.0 43 47
r 0.37312 4 5 cbr 210 ------- 0 1.0 2.0 30 34
+ 0.37312 5 2 cbr 210 ------- 0 1.0 2.0 30 34
- 0.37312 5 2 cbr 210 ------- 0 1.0 2.0 30 34
+ 0.37625 1 4 cbr 210 ------- 0 1.0 2.0 47 51
- 0.37625 1 4 cbr 210 ------- 0 1.0 2.0 47 51
r 0.3764 5 2 cbr 210 ------- 0 1.0 2.0 27 31
r 0.37668 1 4 cbr 210 ------- 0 1.0 2.0 44 48
+ 0.37668 4 5 cbr 210 ------- 0 1.0 2.0 44 48
d 0.37668 4 5 cbr 210 ------- 0 1.0 2.0 44 48
- 0.37992 4 5 cbr 210 ------- 0 1.0 2.0 36 40
+ 0.38 1 4 cbr 210 ------- 0 1.0 2.0 48 52
- 0.38 1 4 cbr 210 ------- 0 1.0 2.0 48 52
r 0.38043 1 4 cbr 210 ------- 0 1.0 2.0 45 49
+ 0.38043 4 5 cbr 210 ------- 0 1.0 2.0 45 49
r 0.38152 4 5 cbr 210 ------- 0 1.0 2.0 32 36
+ 0.38152 5 2 cbr 210 ------- 0 1.0 2.0 32 36
- 0.38152 5 2 cbr 210 ------- 0 1.0 2.0 32 36
+ 0.38375 1 4 cbr 210 ------- 0 1.0 2.0 49 53
- 0.38375 1 4 cbr 210 ------- 0 1.0 2.0 49 53
r 0.38418 1 4 cbr 210 ------- 0 1.0 2.0 46 50
+ 0.38418 4 5 cbr 210 ------- 0 1.0 2.0 46 50
d 0.38418 4 5 cbr 210 ------- 0 1.0 2.0 46 50
r 0.3848 5 2 cbr 210 ------- 0 1.0 2.0 30 34
+ 0.3875 1 4 cbr 210 ------- 0 1.0 2.0 50 54
- 0.3875 1 4 cbr 210 ------- 0 1.0 2.0 50 54
r 0.38793 1 4 cbr 210 ------- 0 1.0 2.0 47 51
+ 0.38793 4 5 cbr 210 ------- 0 1.0 2.0 47 51
d 0.38793 4 5 cbr 210 ------- 0 1.0 2.0 47 51
- 0.38832 4 5 cbr 210 ------- 0 1.0 2.0 39 43
r 0.38992 4 5 cbr 210 ------- 0 1.0 2.0 34 38
+ 0.38992 5 2 cbr 210 ------- 0 1.0 2.0 34 38
- 0.38992 5 2 cbr 210 ------- 0 1.0 2.0 34 38
+ 0.39125 1 4 cbr 210 ------- 0 1.0 2.0 51 55
- 0.39125 1 4 cbr 210 ------- 0 1.0 2.0 51 55
r 0.39168 1 4 cbr 210 ------- 0 1.0 2.0 48 52
+ 0.39168 4 5 cbr 210 ------- 0 1.0 2.0 48 52
r 0.3932 5 2 cbr 210 ------- 0 1.0 2.0 32 36
+ 0.395 1 4 cbr 210 ------- 0 1.0 2.0 52 56
- 0.395 1 4 cbr 210 ------- 0 1.0 2.0 52 56
r 0.39543 1 4 cbr 210 ------- 0 1.0 2.0 49 53
+ 0.39543 4 5 cbr 210 ------- 0 1.0 2.0 49 53
d 0.39543 4 5 cbr 210 ------- 0 1.0 2.0 49 53
- 0.39672 4 5 cbr 210 ------- 0 1.0 2.0 41 45
r 0.39832 4 5 cbr 210 ------- 0 1.0 2.0 36 40
+ 0.39832 5 2 cbr 210 ------- 0 1.0 2.0 36 40
- 0.39832 5 2 cbr 210 ------- 0 1.0 2.0 36 40
+ 0.39875 1 4 cbr 210 ------- 0 1.0 2.0 53 57
- 0.39875 1 4 cbr 210 ------- 0 1.0 2.0 53 57
r 0.39918 1 4 cbr 210 ------- 0 1.0 2.0 50 54
+ 0.39918 4 5 cbr 210 ------- 0 1.0 2.0 50 54
r 0.4016 5 2 cbr 210 ------- 0 1.0 2.0 34 38
+ 0.4025 1 4 cbr 210 ------- 0 1.0 2.0 54 58
- 0.4025 1 4 cbr 210 ------- 0 1.0 2.0 54 58
r 0.40293 1 4 cbr 210 ------- 0 1.0 2.0 51 55
+ 0.40293 4 5 cbr 210 ------- 0 1.0 2.0 51 55
d 0.40293 4 5 cbr 210 ------- 0 1.0 2.0 51 55
- 0.40512 4 5 cbr 210 ------- 0 1.0 2.0 43 47
+ 0.40625 1 4 cbr 210 ------- 0 1.0 2.0 55 59
- 0.40625 1 4 cbr 210 ------- 0 1.0 2.0 55 59
r 0.40668 1 4 cbr 210 ------- 0 1.0 2.0 52 56
+ 0.40668 4 5 cbr 210 ------- 0 1.0 2.0 52 56
r 0.40672 4 5 cbr 210 ------- 0 1.0 2.0 39 43
+ 0.40672 5 2 cbr 210 ------- 0 1.0 2.0 39 43
- 0.40672 5 2 cbr 210 ------- 0 1.0 2.0 39 43
+ 0.41 1 4 cbr 210 ------- 0 1.0 2.0 56 60
- 0.41 1 4 cbr 210 ------- 0 1.0 2.0 56 60
r 0.41 5 2 cbr 210 ------- 0 1.0 2.0 36 40
r 0.41043 1 4 cbr 210 ------- 0 1.0 2.0 53 57
+ 0.41043 4 5 cbr 210 ------- 0 1.0 2.0 53 57
d 0.41043 4 5 cbr 210 ------- 0 1.0 2.0 53 57
- 0.41352 4 5 cbr 210 ------- 0 1.0 2.0 45 49
+ 0.41375 1 4 cbr 210 ------- 0 1.0 2.0 57 61
- 0.41375 1 4 cbr 210 ------- 0 1.0 2.0 57 61
r 0.41418 1 4 cbr 210 ------- 0 1.0 2.0 54 58
+ 0.41418 4 5 cbr 210 ------- 0 1.0 2.0 54 58
r 0.41512 4 5 cbr 210 ------- 0 1.0 2.0 41 45
+ 0.41512 5 2 cbr 210 ------- 0 1.0 2.0 41 45
- 0.41512 5 2 cbr 210 ------- 0 1.0 2.0 41 45
+ 0.4175 1 4 cbr 210 ------- 0 1.0 2.0 58 62
- 0.4175 1 4 cbr 210 ------- 0 1.0 2.0 58 62
r 0.41793 1 4 cbr 210 ------- 0 1.0 2.0 55 59
+ 0.41793 4 5 cbr 210 ------- 0 1.0 2.0 55 59
d 0.41793 4 5 cbr 210 ------- 0 1.0 2.0 55 59
r 0.4184 5 2 cbr 210 ------- 0 1.0 2.0 39 43
+ 0.42125 1 4 cbr 210 ------- 0 1.0 2.0 59 63
- 0.42125 1 4 cbr 210 ------- 0 1.0 2.0 59 63
r 0.42168 1 4 cbr 210 ------- 0 1.0 2.0 56 60
+ 0.42168 4 5 cbr 210 ------- 0 1.0 2.0 56 60
d 0.42168 4 5 cbr 210 ------- 0 1.0 2.0 56 60
- 0.42192 4 5 cbr 210 ------- 0 1.0 2.0 48 52
r 0.42352 4 5 cbr 210 ------- 0 1.0 2.0 43 47
+ 0.42352 5 2 cbr 210 ------- 0 1.0 2.0 43 47
- 0.42352 5 2 cbr 210 ------- 0 1.0 2.0 43 47
+ 0.425 1 4 cbr 210 ------- 0 1.0 2.0 60 64
- 0.425 1 4 cbr 210 ------- 0 1.0 2.0 60 64
r 0.42543 1 4 cbr 210 ------- 0 1.0 2.0 57 61
+ 0.42543 4 5 cbr 210 ------- 0 1.0 2.0 57 61
r 0.4268 5 2 cbr 210 ------- 0 1.0 2.0 41 45
+ 0.42875 1 4 cbr 210 ------- 0 1.0 2.0 61 65
- 0.42875 1 4 cbr 210 ------- 0 1.0 2.0 61 65
r 0.42918 1 4 cbr 210 ------- 0 1.0 2.0 58 62
+ 0.42918 4 5 cbr 210 ------- 0 1.0 2.0 58 62
d 0.42918 4 5 cbr 210 ------- 0 1.0 2.0 58 62
- 0.43032 4 5 cbr 210 ------- 0 1.0 2.0 50 54
r 0.43192 4 5 cbr 210 ------- 0 1.0 2.0 45 49
+ 0.43192 5 2 cbr 210 ------- 0 1.0 2.0 45 49
- 0.43192 5 2 cbr 210 ------- 0 1.0 2.0 45 49
+ 0.4325 1 4 cbr 210 ------- 0 1.0 2.0 62 66
- 0.4325 1 4 cbr 210 ------- 0 1.0 2.0 62 66
r 0.43293 1 4 cbr 210 ------- 0 1.0 2.0 59 63
+ 0.43293 4 5 cbr 210 ------- 0 1.0 2.0 59 63
r 0.4352 5 2 cbr 210 ------- 0 1.0 2.0 43 47
+ 0.43625 1 4 cbr 210 ------- 0 1.0 2.0 63 67
- 0.43625 1 4 cbr 210 ------- 0 1.0 2.0 63 67
r 0.43668 1 4 cbr 210 ------- 0 1.0 2.0 60 64
+ 0.43668 4 5 cbr 210 ------- 0 1.0 2.0 60 64
d 0.43668 4 5 cbr 210 ------- 0 1.0 2.0 60 64
- 0.43872 4 5 cbr 210 ------- 0 1.0 2.0 52 56
+ 0.44 1 4 cbr 210 ------- 0 1.0 2.0 64 68
- 0.44 1 4 cbr 210 ------- 0 1.0 2.0 64 68
r 0.44032 4 5 cbr 210 ------- 0 1.0 2.0 48 52
+ 0.44032 5 2 cbr 210 ------- 0 1.0 2.0 48 52
- 0.44032 5 2 cbr 210 ------- 0 1.0 2.0 48 52
r 0.44043 1 4 cbr 210 ------- 0 1.0 2.0 61 65
+ 0.44043 4 5 cbr 210 ------- 0 1.0 2.0 61 65
r 0.4436 5 2 cbr 210 ------- 0 1.0 2.0 45 49
+ 0.44375 1 4 cbr 210 ------- 0 1.0 2.0 65 69
- 0.44375 1 4 cbr 210 ------- 0 1.0 2.0 65 69
r 0.44418 1 4 cbr 210 ------- 0 1.0 2.0 62 66
+ 0.44418 4 5 cbr 210 ------- 0 1.0 2.0 62 66
d 0.44418 4 5 cbr 210 ------- 0 1.0 2.0 62 66
- 0.44712 4 5 cbr 210 ------- 0 1.0 2.0 54 58
+ 0.4475 1 4 cbr 210 ------- 0 1.0 2.0 66 70
- 0.4475 1 4 cbr 210 ------- 0 1.0 2.0 66 70
r 0.44793 1 4 cbr 210 ------- 0 1.0 2.0 63 67
+ 0.44793 4 5 cbr 210 ------- 0 1.0 2.0 63 67
r 0.44872 4 5 cbr 210 ------- 0 1.0 2.0 50 54
+ 0.44872 5 2 cbr 210 ------- 0 1.0 2.0 50 54
- 0.44872 5 2 cbr 210 ------- 0 1.0 2.0 50 54
+ 0.45125 1 4 cbr 210 ------- 0 1.0 2.0 67 71
- 0.45125 1 4 cbr 210 ------- 0 1.0 2.0 67 71
r 0.45168 1 4 cbr 210 ------- 0 1.0 2.0 64 68
+ 0.45168 4 5 cbr 210 ------- 0 1.0 2.0 64 68
d 0.45168 4 5 cbr 210 ------- 0 1.0 2.0 64 68
r 0.452 5 2 cbr 210 ------- 0 1.0 2.0 48 52
+ 0.455 1 4 cbr 210 ------- 0 1.0 2.0 68 72
- 0.455 1 4 cbr 210 ------- 0 1.0 2.0 68 72
r 0.45543 1 4 cbr 210 ------- 0 1.0 2.0 65 69
+ 0.45543 4 5 cbr 210 ------- 0 1.0 2.0 65 69
d 0.45543 4 5 cbr 210 ------- 0 1.0 2.0 65 69
- 0.45552 4 5 cbr 210 ------- 0 1.0 2.0 57 61
r 0.45712 4 5 cbr 210 ------- 0 1.0 2.0 52 56
+ 0.45712 5 2 cbr 210 ------- 0 1.0 2.0 52 56
- 0.45712 5 2 cbr 210 ------- 0 1.0 2.0 52 56
+ 0.45875 1 4 cbr 210 ------- 0 1.0 2.0 69 73
- 0.45875 1 4 cbr 210 ------- 0 1.0 2.0 69 73
r 0.45918 1 4 cbr 210 ------- 0 1.0 2.0 66 70
+ 0.45918 4 5 cbr 210 ------- 0 1.0 2.0 66 70
r 0.4604 5 2 cbr 210 ------- 0 1.0 2.0 50 54
+ 0.4625 1 4 cbr 210 ------- 0 1.0 2.0 70 74
- 0.4625 1 4 cbr 210 ------- 0 1.0 2.0 70 74
r 0.46293 1 4 cbr 210 ------- 0 1.0 2.0 67 71
+ 0.46293 4 5 cbr 210 ------- 0 1.0 2.0 67 71
d 0.46293 4 5 cbr 210 ------- 0 1.0 2.0 67 71
- 0.46392 4 5 cbr 210 ------- 0 1.0 2.0 59 63
r 0.46552 4 5 cbr 210 ------- 0 1.0 2.0 54 58
+ 0.46552 5 2 cbr 210 ------- 0 1.0 2.0 54 58
- 0.46552 5 2 cbr 210 ------- 0 1.0 2.0 54 58
+ 0.46625 1 4 cbr 210 ------- 0 1.0 2.0 71 75
- 0.46625 1 4 cbr 210 ------- 0 1.0 2.0 71 75
r 0.46668 1 4 cbr 210 ------- 0 1.0 2.0 68 72
+ 0.46668 4 5 cbr 210 ------- 0 1.0 2.0 68 72
r 0.4688 5 2 cbr 210 ------- 0 1.0 2.0 52 56
+ 0.47 1 4 cbr 210 ------- 0 1.0 2.0 72 76
- 0.47 1 4 cbr 210 ------- 0 1.0 2.0 72 76
r 0.47043 1 4 cbr 210 ------- 0 1.0 2.0 69 73
+ 0.47043 4 5 cbr 210 ------- 0 1.0 2.0 69 73
d 0.47043 4 5 cbr 210 ------- 0 1.0 2.0 69 73
- 0.47232 4 5 cbr 210 ------- 0 1.0 2.0 61 65
+ 0.47375 1 4 cbr 210 ------- 0 1.0 2.0 73 77
- 0.47375 1 4 cbr 210 ------- 0 1.0 2.0 73 77
r 0.47392 4 5 cbr 210 ------- 0 1.0 2.0 57 61
+ 0.47392 5 2 cbr 210 ------- 0 1.0 2.0 57 61
- 0.47392 5 2 cbr 210 ------- 0 1.0 2.0 57 61
r 0.47418 1 4 cbr 210 ------- 0 1.0 2.0 70 74
+ 0.47418 4 5 cbr 210 ------- 0 1.0 2.0 70 74
+ 0.47448 0 4 tcp 1040 ---A--- 0 0.0 3.0 1 78
- 0.47448 0 4 tcp 1040 ---A--- 0 0.0 3.0 1 78
r 0.4772 5 2 cbr 210 ------- 0 1.0 2.0 54 58
+ 0.4775 1 4 cbr 210 ------- 0 1.0 2.0 74 79
- 0.4775 1 4 cbr 210 ------- 0 1.0 2.0 74 79
r 0.47793 1 4 cbr 210 ------- 0 1.0 2.0 71 75
+ 0.47793 4 5 cbr 210 ------- 0 1.0 2.0 71 75
d 0.47793 4 5 cbr 210 ------- 0 1.0 2.0 71 75
- 0.48072 4 5 cbr 210 ------- 0 1.0 2.0 63 67
+ 0.48125 1 4 cbr 210 ------- 0 1.0 2.0 75 80
- 0.48125 1 4 cbr 210 ------- 0 1.0 2.0 75 80
r 0.48168 1 4 cbr 210 ------- 0 1.0 2.0 72 76
+ 0.48168 4 5 cbr 210 ------- 0 1.0 2.0 72 76
r 0.48232 4 5 cbr 210 ------- 0 1.0 2.0 59 63
+ 0.48232 5 2 cbr 210 ------- 0 1.0 2.0 59 63
- 0.48232 5 2 cbr 210 ------- 0 1.0 2.0 59 63
+ 0.485 1 4 cbr 210 ------- 0 1.0 2.0 76 81
- 0.485 1 4 cbr 210 ------- 0 1.0 2.0 76 81
r 0.48543 1 4 cbr 210 ------- 0 1.0 2.0 73 77
+ 0.48543 4 5 cbr 210 ------- 0 1.0 2.0 73 77
d 0.48543 4 5 cbr 210 ------- 0 1.0 2.0 73 77
r 0.4856 5 2 cbr 210 ------- 0 1.0 2.0 57 61
+ 0.48875 1 4 cbr 210 ------- 0 1.0 2.0 77 82
- 0.48875 1 4 cbr 210 ------- 0 1.0 2.0 77 82
- 0.48912 4 5 cbr 210 ------- 0 1.0 2.0 66 70
r 0.48918 1 4 cbr 210 ------- 0 1.0 2.0 74 79
+ 0.48918 4 5 cbr 210 ------- 0 1.0 2.0 74 79
r 0.49072 4 5 cbr 210 ------- 0 1.0 2.0 61 65
+ 0.49072 5 2 cbr 210 ------- 0 1.0 2.0 61 65
- 0.49072 5 2 cbr 210 ------- 0 1.0 2.0 61 65
+ 0.4925 1 4 cbr 210 ------- 0 1.0 2.0 78 83
- 0.4925 1 4 cbr 210 ------- 0 1.0 2.0 78 83
r 0.4928 0 4 tcp 1040 ---A--- 0 0.0 3.0 1 78
+ 0.4928 4 5 tcp 1040 ---A--- 0 0.0 3.0 1 78
d 0.4928 4 5 tcp 1040 ---A--- 0 0.0 3.0 1 78
r 0.49293 1 4 cbr 210 ------- 0 1.0 2.0 75 80
+ 0.49293 4 5 cbr 210 ------- 0 1.0 2.0 75 80
d 0.49293 4 5 cbr 210 ------- 0 1.0 2.0 75 80
r 0.494 5 2 cbr 210 ------- 0 1.0 2.0 59 63
+ 0.49625 1 4 cbr 210 ------- 0 1.0 2.0 79 84
- 0.49625 1 4 cbr 210 ------- 0 1.0 2.0 79 84
r 0.49668 1 4 cbr 210 ------- 0 1.0 2.0 76 81
+ 0.49668 4 5 cbr 210 ------- 0 1.0 2.0 76 81
d 0.49668 4 5 cbr 210 ------- 0 1.0 2.0 76 81
- 0.49752 4 5 cbr 210 ------- 0 1.0 2.0 68 72
r 0.49912 4 5 cbr 210 ------- 0 1.0 2.0 63 67
+ 0.49912 5 2 cbr 210 ------- 0 1.0 2.0 63 67
- 0.49912 5 2 cbr 210 ------- 0 1.0 2.0 63 67
+ 0.5 1 4 cbr 210 ------- 0 1.0 2.0 80 85
- 0.5 1 4 cbr 210 ------- 0 1.0 2.0 80 85
r 0.50043 1 4 cbr 210 ------- 0 1.0 2.0 77 82
+ 0.50043 4 5 cbr 210 ------- 0 1.0 2.0 77 82
r 0.5024 5 2 cbr 210 ------- 0 1.0 2.0 61 65
+ 0.50375 1 4 cbr 210 ------- 0 1.0 2.0 81 86
- 0.50375 1 4 cbr 210 ------- 0 1.0 2.0 81 86
r 0.50418 1 4 cbr 210 ------- 0 1.0 2.0 78 83
+ 0.50418 4 5 cbr 210 ------- 0 1.0 2.0 78 83
d 0.50418 4 5 cbr 210 ------- 0 1.0 2.0 78 83
- 0.50592 4 5 cbr 210 ------- 0 1.0 2.0 70 74
+ 0.5075 1 4 cbr 210 ------- 0 1.0 2.0 82 87
- 0.5075 1 4 cbr 210 ------- 0 1.0 2.0 82 87
r 0.50752 4 5 cbr 210 ------- 0 1.0 2.0 66 70
+ 0.50752 5 2 cbr 210 ------- 0 1.0 2.0 66 70
- 0.50752 5 2 cbr 210 ------- 0 1.0 2.0 66 70
r 0.50793 1 4 cbr 210 ------- 0 1.0 2.0 79 84
+ 0.50793 4 5 cbr 210 ------- 0 1.0 2.0 79 84
r 0.5108 5 2 cbr 210 ------- 0 1.0 2.0 63 67
+ 0.51125 1 4 cbr 210 ------- 0 1.0 2.0 83 88
- 0.51125 1 4 cbr 210 ------- 0 1.0 2.0 83 88
r 0.51168 1 4 cbr 210 ------- 0 1.0 2.0 80 85
+ 0.51168 4 5 cbr 210 ------- 0 1.0 2.0 80 85
d 0.51168 4 5 cbr 210 ------- 0 1.0 2.0 80 85
- 0.51432 4 5 cbr 210 ------- 0 1.0 2.0 72 76
+ 0.515 1 4 cbr 210 ------- 0 1.0 2.0 84 89
- 0.515 1 4 cbr 210 ------- 0 1.0 2.0 84 89
r 0.51543 1 4 cbr 210 ------- 0 1.0 2.0 81 86
+ 0.51543 4 5 cbr 210 ------- 0 1.0 2.0 81 86
r 0.51592 4 5 cbr 210 ------- 0 1.0 2.0 68 72
+ 0.51592 5 2 cbr 210 ------- 0 1.0 2.0 68 72
- 0.51592 5 2 cbr 210 ------- 0 1.0 2.0 68 72
+ 0.51875 1 4 cbr 210 ------- 0 1.0 2.0 85 90
- 0.51875 1 4 cbr 210 ------- 0 1.0 2.0 85 90
r 0.51918 1 4 cbr 210 ------- 0 1.0 2.0 82 87
+ 0.51918 4 5 cbr 210 ------- 0 1.0 2.0 82 87
d 0.51918 4 5 cbr 210 ------- 0 1.0 2.0 82 87
r 0.5192 5 2 cbr 210 ------- 0 1.0 2.0 66 70
+ 0.5225 1 4 cbr 210 ------- 0 1.0 2.0 86 91
- 0.5225 1 4 cbr 210 ------- 0 1.0 2.0 86 91
- 0.52272 4 5 cbr 210 ------- 0 1.0 2.0 74 79
r 0.52293 1 4 cbr 210 ------- 0 1.0 2.0 83 88
+ 0.52293 4 5 cbr 210 ------- 0 1.0 2.0 83 88
r 0.52432 4 5 cbr 210 ------- 0 1.0 2.0 70 74
+ 0.52432 5 2 cbr 210 ------- 0 1.0 2.0 70 74
- 0.52432 5 2 cbr 210 ------- 0 1.0 2.0 70 74
+ 0.52625 1 4 cbr 210 ------- 0 1.0 2.0 87 92
- 0.52625 1 4 cbr 210 ------- 0 1.0 2.0 87 92
r 0.52668 1 4 cbr 210 ------- 0 1.0 2.0 84 89
+ 0.52668 4 5 cbr 210 ------- 0 1.0 2.0 84 89
d 0.52668 4 5 cbr 210 ------- 0 1.0 2.0 84 89
r 0.5276 5 2 cbr 210 ------- 0 1.0 2.0 68 72
+ 0.53 1 4 cbr 210 ------- 0 1.0 2.0 88 93
- 0.53 1 4 cbr 210 ------- 0 1.0 2.0 88 93
r 0.53043 1 4 cbr 210 ------- 0 1.0 2.0 85 90
+ 0.53043 4 5 cbr 210 ------- 0 1.0 2.0 85 90
d 0.53043 4 5 cbr 210 ------- 0 1.0 2.0 85 90
- 0.53112 4 5 cbr 210 ------- 0 1.0 2.0 77 82
r 0.53272 4 5 cbr 210 ------- 0 1.0 2.0 72 76
+ 0.53272 5 2 cbr 210 ------- 0 1.0 2.0 72 76
- 0.53272 5 2 cbr 210 ------- 0 1.0 2.0 72 76
+ 0.53375 1 4 cbr 210 ------- 0 1.0 2.0 89 94
- 0.53375 1 4 cbr 210 ------- 0 1.0 2.0 89 94
r 0.53418 1 4 cbr 210 ------- 0 1.0 2.0 86 91
+ 0.53418 4 5 cbr 210 ------- 0 1.0 2.0 86 91
r 0.536 5 2 cbr 210 ------- 0 1.0 2.0 70 74
+ 0.5375 1 4 cbr 210 ------- 0 1.0 2.0 90 95
- 0.5375 1 4 cbr 210 ------- 0 1.0 2.0 90 95
r 0.53793 1 4 cbr 210 ------- 0 1.0 2.0 87 92
+ 0.53793 4 5 cbr 210 ------- 0 1.0 2.0 87 92
d 0.53793 4 5 cbr 210 ------- 0 1.0 2.0 87 92
- 0.53952 4 5 cbr 210 ------- 0 1.0 2.0 79 84
r 0.54112 4 5 cbr 210 ------- 0 1.0 2.0 74 79
+ 0.54112 5 2 cbr 210 ------- 0 1.0 2.0 74 79
- 0.54112 5 2 cbr 210 ------- 0 1.0 2.0 74 79
+ 0.54125 1 4 cbr 210 ------- 0 1.0 2.0 91 96
- 0.54125 1 4 cbr 210 ------- 0 1.0 2.0 91 96
r 0.54168 1 4 cbr 210 ------- 0 1.0 2.0 88 93
+ 0.54168 4 5 cbr 210 ------- 0 1.0 2.0 88 93
r 0.5444 5 2 cbr 210 ------- 0 1.0 2.0 72 76
+ 0.545 1 4 cbr 210 ------- 0 1.0 2.0 92 97
- 0.545 1 4 cbr 210 ------- 0 1.0 2.0 92 97
r 0.54543 1 4 cbr 210 ------- 0 1.0 2.0 89 94
+ 0.54543 4 5 cbr 210 ------- 0 1.0 2.0 89 94
d 0.54543 4 5 cbr 210 ------- 0 1.0 2.0 89 94
- 0.54792 4 5 cbr 210 ------- 0 1.0 2.0 81 86
+ 0.54875 1 4 cbr 210 ------- 0 1.0 2.0 93 98
- 0.54875 1 4 cbr 210 ------- 0 1.0 2.0 93 98
r 0.54918 1 4 cbr 210 ------- 0 1.0 2.0 90 95
+ 0.54918 4 5 cbr 210 ------- 0 1.0 2.0 90 95
r 0.54952 4 5 cbr 210 ------- 0 1.0 2.0 77 82
+ 0.54952 5 2 cbr 210 ------- 0 1.0 2.0 77 82
- 0.54952 5 2 cbr 210 ------- 0 1.0 2.0 77 82
+ 0.5525 1 4 cbr 210 ------- 0 1.0 2.0 94 99
- 0.5525 1 4 cbr 210 ------- 0 1.0 2.0 94 99
r 0.5528 5 2 cbr 210 ------- 0 1.0 2.0 74 79
r 0.55293 1 4 cbr 210 ------- 0 1.0 2.0 91 96
+ 0.55293 4 5 cbr 210 ------- 0 1.0 2.0 91 96
d 0.55293 4 5 cbr 210 ------- 0 1.0 2.0 91 96
+ 0.55625 1 4 cbr 210 ------- 0 1.0 2.0 95 100
- 0.55625 1 4 cbr 210 ------- 0 1.0 2.0 95 100
- 0.55632 4 5 cbr 210 ------- 0 1.0 2.0 83 88
r 0.55668 1 4 cbr 210 ------- 0 1.0 2.0 92 97
+ 0.55668 4 5 cbr 210 ------- 0 1.0 2.0 92 97
r 0.55792 4 5 cbr 210 ------- 0 1.0 2.0 79 84
+ 0.55792 5 2 cbr 210 ------- 0 1.0 2.0 79 84
- 0.55792 5 2 cbr 210 ------- 0 1.0 2.0 79 84
+ 0.56 1 4 cbr 210 ------- 0 1.0 2.0 96 101
- 0.56 1 4 cbr 210 ------- 0 1.0 2.0 96 101
r 0.56043 1 4 cbr 210 ------- 0 1.0 2.0 93 98