n -t 0 -s 0 -S DLABEL -l "FTP source" -L ""
n -t 0 -s 1 -S DLABEL -l "Telnet source" -L ""
V -t * -v 1.0a5 -a 0
A -t * -n 1 -p 0 -o 0x7fffffff -c 30 -a 1
A -t * -h 1 -m 1073741823 -s 0
n -t * -a 4 -s 4 -S UP -v circle -c black -i black
n -t * -a 0 -s 0 -S UP -v circle -c black -i black
n -t * -a 5 -s 5 -S UP -v circle -c black -i black
n -t * -a 1 -s 1 -S UP -v circle -c black -i black
n -t * -a 2 -s 2 -S UP -v circle -c black -i black
n -t * -a 3 -s 3 -S UP -v circle -c black -i black
l -t * -s 0 -d 2 -S UP -r 1000000 -D 0.01 -c black -o right-down
l -t * -s 1 -d 2 -S UP -r 1000000 -D 0.01 -c black -o right-up
l -t * -s 2 -d 3 -S UP -r 500000 -D 0.01 -c black -o right
l -t * -s 3 -d 4 -S UP -r 1000000 -D 0.01 -c black -o right-up
l -t * -s 3 -d 5 -S UP -r 1000000 -D 0.01 -c black -o right-down
+ -t 0.2 -s 0 -d 2 -p tcp -e 40 -c 0 -i 0 -a 0 -x {0.0 4.0 0 ------- null}
- -t 0.2 -s 0 -d 2 -p tcp -e 40 -c 0 -i 0 -a 0 -x {0.0 4.0 0 ------- null}
h -t 0.2 -s 0 -d 2 -p tcp -e 40 -c 0 -i 0 -a 0 -x {0.0 4.0 -1 ------- null}
r -t 0.21032 -s 0 -d 2 -p tcp -e 40 -c 0 -i 0 -a 0 -x {0.0 4.0 0 ------- null}
+ -t 0.21032 -s 2 -d 3 -p tcp -e 40 -c 0 -i 0 -a 0 -x {0.0 4.0 0 ------- null}
- -t 0.21032 -s 2 -d 3 -p tcp -e 40 -c 0 -i 0 -a 0 -x {0.0 4.0 0 ------- null}
h -t 0.21032 -s 2 -d 3 -p tcp -e 40 -c 0 -i 0 -a 0 -x {0.0 4.0 -1 ------- null}
r -t 0.22096 -s 2 -d 3 -p tcp -e 40 -c 0 -i 0 -a 0 -x {0.0 4.0 0 ------- null}
+ -t 0.22096 -s 3 -d 4 -p tcp -e 40 -c 0 -i 0 -a 0 -x {0.0 4.0 0 ------- null}
- -t 0.22096 -s 3 -d 4 -p tcp -e 40 -c 0 -i 0 -a 0 -x {0.0 4.0 0 ------- null}
h -t 0.22096 -s 3 -d 4 -p tcp -e 40 -c 0 -i 0 -a 0 -x {0.0 4.0 -1 ------- null}
r -t 0.23128 -s 3 -d 4 -p tcp -e 40 -c 0 -i 0 -a 0 -x {0.0 4.0 0 ------- null}
+ -t 0.23128 -s 4 -d 3 -p ack -e 40 -c 0 -i 1 -a 0 -x {4.0 0.0 0 ------- null}
- -t 0.23128 -s 4 -d 3 -p ack -e 40 -c 0 -i 1 -a 0 -x {4.0 0.0 0 ------- null}
h -t 0.23128 -s 4 -d 3 -p ack -e 40 -c 0 -i 1 -a 0 -x {4.0 0.0 -1 ------- null}
r -t 0.2416 -s 4 -d 3 -p ack -e 40 -c 0 -i 1 -a 0 -x {4.0 0.0 0 ------- null}
+ -t 0.2416 -s 3 -d 2 -p ack -e 40 -c 0 -i 1 -a 0 -x {4.0 0.0 0 ------- null}
- -t 0.2416 -s 3 -d 2 -p ack -e 40 -c 0 -i 1 -a 0 -x {4.0 0.0 0 ------- null}
h -t 0.2416 -s 3 -d 2 -p ack -e 40 -c 0 -i 1 -a 0 -x {4.0 0.0 -1 ------- null}
r -t 0.25224 -s 3 -d 2 -p ack -e 40 -c 0 -i 1 -a 0 -x {4.0 0.0 0 ------- null}
+ -t 0.25224 -s 2 -d 0 -p ack -e 40 -c 0 -i 1 -a 0 -x {4.0 0.0 0 ------- null}
- -t 0.25224 -s 2 -d 0 -p ack -e 40 -c 0 -i 1 -a 0 -x {4.0 0.0 0 ------- null}
h -t 0.25224 -s 2 -d 0 -p ack -e 40 -c 0 -i 1 -a 0 -x {4.0 0.0 -1 ------- null}
r -t 0.26256 -s 2 -d 0 -p ack -e 40 -c 0 -i 1 -a 0 -x {4.0 0.0 0 ------- null}
+ -t 0.26256 -s 0 -d 2 -p tcp -e 1040 -c 0 -i 2 -a 0 -x {0.0 4.0 1 ------- null}
- -t 0.26256 -s 0 -d 2 -p tcp -e 1040 -c 0 -i 2 -a 0 -x {0.0 4.0 1 ------- null}
h -t 0.26256 -s 0 -d 2 -p tcp -e 1040 -c 0 -i 2 -a 0 -x {0.0 4.0 -1 ------- null}
+ -t 0.26256 -s 0 -d 2 -p tcp -e 1040 -c 0 -i 3 -a 0 -x {0.0 4.0 2 ------- null}
- -t 0.27088 -s 0 -d 2 -p tcp -e 1040 -c 0 -i 3 -a 0 -x {0.0 4.0 2 ------- null}
h -t 0.27088 -s 0 -d 2 -p tcp -e 1040 -c 0 -i 3 -a 0 -x {0.0 4.0 -1 ------- null}
r -t 0.28088 -s 0 -d 2 -p tcp -e 1040 -c 0 -i 2 -a 0 -x {0.0 4.0 1 ------- null}
+ -t 0.28088 -s 2 -d 3 -p tcp -e 1040 -c 0 -i 2 -a 0 -x {0.0 4.0 1 ------- null}
- -t 0.28088 -s 2 -d 3 -p tcp -e 1040 -c 0 -i 2 -a 0 -x {0.0 4.0 1 ------- null}
h -t 0.28088 -s 2 -d 3 -p tcp -e 1040 -c 0 -i 2 -a 0 -x {0.0 4.0 -1 ------- null}
r -t 0.2892 -s 0 -d 2 -p tcp -e 1040 -c 0 -i 3 -a 0 -x {0.0 4.0 2 ------- null}
+ -t 0.2892 -s 2 -d 3 -p tcp -e 1040 -c 0 -i 3 -a 0 -x {0.0 4.0 2 ------- null}
- -t 0.29752 -s 2 -d 3 -p tcp -e 1040 -c 0 -i 3 -a 0 -x {0.0 4.0 2 ------- null}
h -t 0.29752 -s 2 -d 3 -p tcp -e 1040 -c 0 -i 3 -a 0 -x {0.0 4.0 -1 ------- null}
r -t 0.30752 -s 2 -d 3 -p tcp -e 1040 -c 0 -i 2 -a 0 -x {0.0 4.0 1 ------- null}
+ -t 0.30752 -s 3 -d 4 -p tcp -e 1040 -c 0 -i 2 -a 0 -x {0.0 4.0 1 ------- null}
- -t 0.30752 -s 3 -d 4 -p tcp -e 1040 -c 0 -i 2 -a 0 -x {0.0 4.0 1 ------- null}
h -t 0.30752 -s 3 -d 4 -p tcp -e 1040 -c 0 -i 2 -a 0 -x {0.0 4.0 -1 ------- null}
r -t 0.32416 -s 2 -d 3 -p tcp -e 1040 -c 0 -i 3 -a 0 -x {0.0 4.0 2 ------- null}
+ -t 0.32416 -s 3 -d 4 -p tcp -e 1040 -c 0 -i 3 -a 0 -x {0.0 4.0 2 ------- null}
- -t 0.32416 -s 3 -d 4 -p tcp -e 1040 -c 0 -i 3 -a 0 -x {0.0 4.0 2 ------- null}
h -t 0.32416 -s 3 -d 4 -p tcp -e 1040 -c 0 -i 3 -a 0 -x {0.0 4.0 -1 ------- null}
r -t 0.32584 -s 3 -d 4 -p tcp -e 1040 -c 0 -i 2 -a 0 -x {0.0 4.0 1 ------- null}
+ -t 0.32584 -s 4 -d 3 -p ack -e 40 -c 0 -i 4 -a 0 -x {4.0 0.0 1 ------- null}
- -t 0.32584 -s 4 -d 3 -p ack -e 40 -c 0 -i 4 -a 0 -x {4.0 0.0 1 ------- null}
h -t 0.32584 -s 4 -d 3 -p ack -e 40 -c 0 -i 4 -a 0 -x {4.0 0.0 -1 ------- null}
r -t 0.33616 -s 4 -d 3 -p ack -e 40 -c 0 -i 4 -a 0 -x {4.0 0.0 1 ------- null}
+ -t 0.33616 -s 3 -d 2 -p ack -e 40 -c 0 -i 4 -a 0 -x {4.0 0.0 1 ------- null}
- -t 0.33616 -s 3 -d 2 -p ack -e 40 -c 0 -i 4 -a 0 -x {4.0 0.0 1 ------- null}
h -t 0.33616 -s 3 -d 2 -p ack -e 40 -c 0 -i 4 -a 0 -x {4.0 0.0 -1 ------- null}
r -t 0.34248 -s 3 -d 4 -p tcp -e 1040 -c 0 -i 3 -a 0 -x {0.0 4.0 2 ------- null}
+ -t 0.34248 -s 4 -d 3 -p ack -e 40 -c 0 -i 5 -a 0 -x {4.0 0.0 2 ------- null}
- -t 0.34248 -s 4 -d 3 -p ack -e 40 -c 0 -i 5 -a 0 -x {4.0 0.0 2 ------- null}
h -t 0.34248 -s 4 -d 3 -p ack -e 40 -c 0 -i 5 -a 0 -x {4.0 0.0 -1 ------- null}
r -t 0.3468 -s 3 -d 2 -p ack -e 40 -c 0 -i 4 -a 0 -x {4.0 0.0 1 ------- null}
+ -t 0.3468 -s 2 -d 0 -p ack -e 40 -c 0 -i 4 -a 0 -x {4.0 0.0 1 ------- null}
- -t 0.3468 -s 2 -d 0 -p ack -e 40 -c 0 -i 4 -a 0 -x {4.0 0.0 1 ------- null}
h -t 0.3468 -s 2 -d 0 -p ack -e 40 -c 0 -i 4 -a 0 -x {4.0 0.0 -1 ------- null}
r -t 0.3528 -s 4 -d 3 -p ack -e 40 -c 0 -i 5 -a 0 -x {4.0 0.0 2 ------- null}
+ -t 0.3528 -s 3 -d 2 -p ack -e 40 -c 0 -i 5 -a 0 -x {4.0 0.0 2 ------- null}
- -t 0.3528 -s 3 -d 2 -p ack -e 40 -c 0 -i 5 -a 0 -x {4.0 0.0 2 ------- null}
h -t 0.3528 -s 3 -d 2 -p ack -e 40 -c 0 -i 5 -a 0 -x {4.0 0.0 -1 ------- null}
r -t 0.35712 -s 2 -d 0 -p ack -e 40 -c 0 -i 4 -a 0 -x {4.0 0.0 1 ------- null}
+ -t 0.35712 -s 0 -d 2 -p tcp -e 1040 -c 0 -i 6 -a 0 -x {0.0 4.0 3 ------- null}
- -t 0.35712 -s 0 -d 2 -p tcp -e 1040 -c 0 -i 6 -a 0 -x {0.0 4.0 3 ------- null}
h -t 0.35712 -s 0 -d 2 -p tcp -e 1040 -c 0 -i 6 -a 0 -x {0.0 4.0 -1 ------- null}
+ -t 0.35712 -s 0 -d 2 -p tcp -e 1040 -c 0 -i 7 -a 0 -x {0.0 4.0 4 ------- null}
r -t 0.36344 -s 3 -d 2 -p ack -e 40 -c 0 -i 5 -a 0 -x {4.0 0.0 2 ------- null}
+ -t 0.36344 -s 2 -d 0 -p ack -e 40 -c 0 -i 5 -a 0 -x {4.0 0.0 2 ------- null}
- -t 0.36344 -s 2 -d 0 -p ack -e 40 -c 0 -i 5 -a 0 -x {4.0 0.0 2 ------- null}
h -t 0.36344 -s 2 -d 0 -p ack -e 40 -c 0 -i 5 -a 0 -x {4.0 0.0 -1 ------- null}
- -t 0.36544 -s 0 -d 2 -p tcp -e 1040 -c 0 -i 7 -a 0 -x {0.0 4.0 4 ------- null}
h -t 0.36544 -s 0 -d 2 -p tcp -e 1040 -c 0 -i 7 -a 0 -x {0.0 4.0 -1 ------- null}
r -t 0.37376 -s 2 -d 0 -p ack -e 40 -c 0 -i 5 -a 0 -x {4.0 0.0 2 ------- null}
+ -t 0.37376 -s 0 -d 2 -p tcp -e 1040 -c 0 -i 8 -a 0 -x {0.0 4.0 5 ------- null}
+ -t 0.37376 -s 0 -d 2 -p tcp -e 1040 -c 0 -i 9 -a 0 -x {0.0 4.0 6 ------- null}
- -t 0.37376 -s 0 -d 2 -p tcp -e 1040 -c 0 -i 8 -a 0 -x {0.0 4.0 5 ------- null}
h -t 0.37376 -s 0 -d 2 -p tcp -e 1040 -c 0 -i 8 -a 0 -x {0.0 4.0 -1 ------- null}
r -t 0.37544 -s 0 -d 2 -p tcp -e 1040 -c 0 -i 6 -a 0 -x {0.0 4.0 3 ------- null}
+ -t 0.37544 -s 2 -d 3 -p tcp -e 1040 -c 0 -i 6 -a 0 -x {0.0 4.0 3 ------- null}
- -t 0.37544 -s 2 -d 3 -p tcp -e 1040 -c 0 -i 6 -a 0 -x {0.0 4.0 3 ------- null}
h -t 0.37544 -s 2 -d 3 -p tcp -e 1040 -c 0 -i 6 -a 0 -x {0.0 4.0 -1 ------- null}
- -t 0.38208 -s 0 -d 2 -p tcp -e 1040 -c 0 -i 9 -a 0 -x {0.0 4.0 6 ------- null}
h -t 0.38208 -s 0 -d 2 -p tcp -e 1040 -c 0 -i 9 -a 0 -x {0.0 4.0 -1 ------- null}
r -t 0.38376 -s 0 -d 2 -p tcp -e 1040 -c 0 -i 7 -a 0 -x {0.0 4.0 4 ------- null}
+ -t 0.38376 -s 2 -d 3 -p tcp -e 1040 -c 0 -i 7 -a 0 -x {0.0 4.0 4 ------- null}
r -t 0.39208 -s 0 -d 2 -p tcp -e 1040 -c 0 -i 8 -a 0 -x {0.0 4.0 5 ------- null}
+ -t 0.39208 -s 2 -d 3 -p tcp -e 1040 -c 0 -i 8 -a 0 -x {0.0 4.0 5 ------- null}
- -t 0.39208 -s 2 -d 3 -p tcp -e 1040 -c 0 -i 7 -a 0 -x {0.0 4.0 4 ------- null}
h -t 0.39208 -s 2 -d 3 -p tcp -e 1040 -c 0 -i 7 -a 0 -x {0.0 4.0 -1 ------- null}
r -t 0.4004 -s 0 -d 2 -p tcp -e 1040 -c 0 -i 9 -a 0 -x {0.0 4.0 6 ------- null}
+ -t 0.4004 -s 2 -d 3 -p tcp -e 1040 -c 0 -i 9 -a 0 -x {0.0 4.0 6 ------- null}
r -t 0.40208 -s 2 -d 3 -p tcp -e 1040 -c 0 -i 6 -a 0 -x {0.0 4.0 3 ------- null}
+ -t 0.40208 -s 3 -d 4 -p tcp -e 1040 -c 0 -i 6 -a 0 -x {0.0 4.0 3 ------- null}
- -t 0.40208 -s 3 -d 4 -p tcp -e 1040 -c 0 -i 6 -a 0 -x {0.0 4.0 3 ------- null}
h -t 0.40208 -s 3 -d 4 -p tcp -e 1040 -c 0 -i 6 -a 0 -x {0.0 4.0 -1 ------- null}
- -t 0.40872 -s 2 -d 3 -p tcp -e 1040 -c 0 -i 8 -a 0 -x {0.0 4.0 5 ------- null}
h -t 0.40872 -s 2 -d 3 -p tcp -e 1040 -c 0 -i 8 -a 0 -x {0.0 4.0 -1 ------- null}
r -t 0.41872 -s 2 -d 3 -p tcp -e 1040 -c 0 -i 7 -a 0 -x {0.0 4.0 4 ------- null}
+ -t 0.41872 -s 3 -d 4 -p tcp -e 1040 -c 0 -i 7 -a 0 -x {0.0 4.0 4 ------- null}
- -t 0.41872 -s 3 -d 4 -p tcp -e 1040 -c 0 -i 7 -a 0 -x {0.0 4.0 4 ------- null}
h -t 0.41872 -s 3 -d 4 -p tcp -e 1040 -c 0 -i 7 -a 0 -x {0.0 4.0 -1 ------- null}
r -t 0.4204 -s 3 -d 4 -p tcp -e 1040 -c 0 -i 6 -a 0 -x {0.0 4.0 3 ------- null}
+ -t 0.4204 -s 4 -d 3 -p ack -e 40 -c 0 -i 10 -a 0 -x {4.0 0.0 3 ------- null}
- -t 0.4204 -s 4 -d 3 -p ack -e 40 -c 0 -i 10 -a 0 -x {4.0 0.0 3 ------- null}
h -t 0.4204 -s 4 -d 3 -p ack -e 40 -c 0 -i 10 -a 0 -x {4.0 0.0 -1 ------- null}
- -t 0.42536 -s 2 -d 3 -p tcp -e 1040 -c 0 -i 9 -a 0 -x {0.0 4.0 6 ------- null}
h -t 0.42536 -s 2 -d 3 -p tcp -e 1040 -c 0 -i 9 -a 0 -x {0.0 4.0 -1 ------- null}
r -t 0.43072 -s 4 -d 3 -p ack -e 40 -c 0 -i 10 -a 0 -x {4.0 0.0 3 ------- null}
+ -t 0.43072 -s 3 -d 2 -p ack -e 40 -c 0 -i 10 -a 0 -x {4.0 0.0 3 ------- null}
- -t 0.43072 -s 3 -d 2 -p ack -e 40 -c 0 -i 10 -a 0 -x {4.0 0.0 3 ------- null}
h -t 0.43072 -s 3 -d 2 -p ack -e 40 -c 0 -i 10 -a 0 -x {4.0 0.0 -1 ------- null}
r -t 0.43536 -s 2 -d 3 -p tcp -e 1040 -c 0 -i 8 -a 0 -x {0.0 4.0 5 ------- null}
+ -t 0.43536 -s 3 -d 4 -p tcp -e 1040 -c 0 -i 8 -a 0 -x {0.0 4.0 5 ------- null}
- -t 0.43536 -s 3 -d 4 -p tcp -e 1040 -c 0 -i 8 -a 0 -x {0.0 4.0 5 ------- null}
h -t 0.43536 -s 3 -d 4 -p tcp -e 1040 -c 0 -i 8 -a 0 -x {0.0 4.0 -1 ------- null}
r -t 0.43704 -s 3 -d 4 -p tcp -e 1040 -c 0 -i 7 -a 0 -x {0.0 4.0 4 ------- null}
+ -t 0.43704 -s 4 -d 3 -p ack -e 40 -c 0 -i 11 -a 0 -x {4.0 0.0 4 ------- null}
- -t 0.43704 -s 4 -d 3 -p ack -e 40 -c 0 -i 11 -a 0 -x {4.0 0.0 4 ------- null}
h -t 0.43704 -s 4 -d 3 -p ack -e 40 -c 0 -i 11 -a 0 -x {4.0 0.0 -1 ------- null}
r -t 0.44136 -s 3 -d 2 -p ack -e 40 -c 0 -i 10 -a 0 -x {4.0 0.0 3 ------- null}
+ -t 0.44136 -s 2 -d 0 -p ack -e 40 -c 0 -i 10 -a 0 -x {4.0 0.0 3 ------- null}
- -t 0.44136 -s 2 -d 0 -p ack -e 40 -c 0 -i 10 -a 0 -x {4.0 0.0 3 ------- null}
h -t 0.44136 -s 2 -d 0 -p ack -e 40 -c 0 -i 10 -a 0 -x {4.0 0.0 -1 ------- null}
r -t 0.44736 -s 4 -d 3 -p ack -e 40 -c 0 -i 11 -a 0 -x {4.0 0.0 4 ------- null}
+ -t 0.44736 -s 3 -d 2 -p ack -e 40 -c 0 -i 11 -a 0 -x {4.0 0.0 4 ------- null}
- -t 0.44736 -s 3 -d 2 -p ack -e 40 -c 0 -i 11 -a 0 -x {4.0 0.0 4 ------- null}
h -t 0.44736 -s 3 -d 2 -p ack -e 40 -c 0 -i 11 -a 0 -x {4.0 0.0 -1 ------- null}
r -t 0.45168 -s 2 -d 0 -p ack -e 40 -c 0 -i 10 -a 0 -x {4.0 0.0 3 ------- null}
+ -t 0.45168 -s 0 -d 2 -p tcp -e 1040 -c 0 -i 12 -a 0 -x {0.0 4.0 7 ------- null}
- -t 0.45168 -s 0 -d 2 -p tcp -e 1040 -c 0 -i 12 -a 0 -x {0.0 4.0 7 ------- null}
h -t 0.45168 -s 0 -d 2 -p tcp -e 1040 -c 0 -i 12 -a 0 -x {0.0 4.0 -1 ------- null}
+ -t 0.45168 -s 0 -d 2 -p tcp -e 1040 -c 0 -i 13 -a 0 -x {0.0 4.0 8 ------- null}
r -t 0.452 -s 2 -d 3 -p tcp -e 1040 -c 0 -i 9 -a 0 -x {0.0 4.0 6 ------- null}
+ -t 0.452 -s 3 -d 4 -p tcp -e 1040 -c 0 -i 9 -a 0 -x {0.0 4.0 6 ------- null}
- -t 0.452 -s 3 -d 4 -p tcp -e 1040 -c 0 -i 9 -a 0 -x {0.0 4.0 6 ------- null}
h -t 0.452 -s 3 -d 4 -p tcp -e 1040 -c 0 -i 9 -a 0 -x {0.0 4.0 -1 ------- null}
r -t 0.45368 -s 3 -d 4 -p tcp -e 1040 -c 0 -i 8 -a 0 -x {0.0 4.0 5 ------- null}
+ -t 0.45368 -s 4 -d 3 -p ack -e 40 -c 0 -i 14 -a 0 -x {4.0 0.0 5 ------- null}
- -t 0.45368 -s 4 -d 3 -p ack -e 40 -c 0 -i 14 -a 0 -x {4.0 0.0 5 ------- null}
h -t 0.45368 -s 4 -d 3 -p ack -e 40 -c 0 -i 14 -a 0 -x {4.0 0.0 -1 ------- null}
r -t 0.458 -s 3 -d 2 -p ack -e 40 -c 0 -i 11 -a 0 -x {4.0 0.0 4 ------- null}
+ -t 0.458 -s 2 -d 0 -p ack -e 40 -c 0 -i 11 -a 0 -x {4.0 0.0 4 ------- null}
- -t 0.458 -s 2 -d 0 -p ack -e 40 -c 0 -i 11 -a 0 -x {4.0 0.0 4 ------- null}
h -t 0.458 -s 2 -d 0 -p ack -e 40 -c 0 -i 11 -a 0 -x {4.0 0.0 -1 ------- null}
- -t 0.46 -s 0 -d 2 -p tcp -e 1040 -c 0 -i 13 -a 0 -x {0.0 4.0 8 ------- null}
h -t 0.46 -s 0 -d 2 -p tcp -e 1040 -c 0 -i 13 -a 0 -x {0.0 4.0 -1 ------- null}
r -t 0.464 -s 4 -d 3 -p ack -e 40 -c 0 -i 14 -a 0 -x {4.0 0.0 5 ------- null}
+ -t 0.464 -s 3 -d 2 -p ack -e 40 -c 0 -i 14 -a 0 -x {4.0 0.0 5 ------- null}
- -t 0.464 -s 3 -d 2 -p ack -e 40 -c 0 -i 14 -a 0 -x {4.0 0.0 5 ------- null}
h -t 0.464 -s 3 -d 2 -p ack -e 40 -c 0 -i 14 -a 0 -x {4.0 0.0 -1 ------- null}
r -t 0.46832 -s 2 -d 0 -p ack -e 40 -c 0 -i 11 -a 0 -x {4.0 0.0 4 ------- null}
+ -t 0.46832 -s 0 -d 2 -p tcp -e 1040 -c 0 -i 15 -a 0 -x {0.0 4.0 9 ------- null}
+ -t 0.46832 -s 0 -d 2 -p tcp -e 1040 -c 0 -i 16 -a 0 -x {0.0 4.0 10 ------- null}
- -t 0.46832 -s 0 -d 2 -p tcp -e 1040 -c 0 -i 15 -a 0 -x {0.0 4.0 9 ------- null}
h -t 0.46832 -s 0 -d 2 -p tcp -e 1040 -c 0 -i 15 -a 0 -x {0.0 4.0 -1 ------- null}
r -t 0.47 -s 0 -d 2 -p tcp -e 1040 -c 0 -i 12 -a 0 -x {0.0 4.0 7 ------- null}
+ -t 0.47 -s 2 -d 3 -p tcp -e 1040 -c 0 -i 12 -a 0 -x {0.0 4.0 7 ------- null}
- -t 0.47 -s 2 -d 3 -p tcp -e 1040 -c 0 -i 12 -a 0 -x {0.0 4.0 7 ------- null}
h -t 0.47 -s 2 -d 3 -p tcp -e 1040 -c 0 -i 12 -a 0 -x {0.0 4.0 -1 ------- null}
r -t 0.47032 -s 3 -d 4 -p tcp -e 1040 -c 0 -i 9 -a 0 -x {0.0 4.0 6 ------- null}
+ -t 0.47032 -s 4 -d 3 -p ack -e 40 -c 0 -i 17 -a 0 -x {4.0 0.0 6 ------- null}
- -t 0.47032 -s 4 -d 3 -p ack -e 40 -c 0 -i 17 -a 0 -x {4.0 0.0 6 ------- null}
h -t 0.47032 -s 4 -d 3 -p ack -e 40 -c 0 -i 17 -a 0 -x {4.0 0.0 -1 ------- null}
r -t 0.47464 -s 3 -d 2 -p ack -e 40 -c 0 -i 14 -a 0 -x {4.0 0.0 5 ------- null}
+ -t 0.47464 -s 2 -d 0 -p ack -e 40 -c 0 -i 14 -a 0 -x {4.0 0.0 5 ------- null}
- -t 0.47464 -s 2 -d 0 -p ack -e 40 -c 0 -i 14 -a 0 -x {4.0 0.0 5 ------- null}
h -t 0.47464 -s 2 -d 0 -p ack -e 40 -c 0 -i 14 -a 0 -x {4.0 0.0 -1 ------- null}
- -t 0.47664 -s 0 -d 2 -p tcp -e 1040 -c 0 -i 16 -a 0 -x {0.0 4.0 10 ------- null}
h -t 0.47664 -s 0 -d 2 -p tcp -e 1040 -c 0 -i 16 -a 0 -x {0.0 4.0 -1 ------- null}
r -t 0.47832 -s 0 -d 2 -p tcp -e 1040 -c 0 -i 13 -a 0 -x {0.0 4.0 8 ------- null}
+ -t 0.47832 -s 2 -d 3 -p tcp -e 1040 -c 0 -i 13 -a 0 -x {0.0 4.0 8 ------- null}
r -t 0.48064 -s 4 -d 3 -p ack -e 40 -c 0 -i 17 -a 0 -x {4.0 0.0 6 ------- null}
+ -t 0.48064 -s 3 -d 2 -p ack -e 40 -c 0 -i 17 -a 0 -x {4.0 0.0 6 ------- null}
- -t 0.48064 -s 3 -d 2 -p ack -e 40 -c 0 -i 17 -a 0 -x {4.0 0.0 6 ------- null}
h -t 0.48064 -s 3 -d 2 -p ack -e 40 -c 0 -i 17 -a 0 -x {4.0 0.0 -1 ------- null}
r -t 0.48496 -s 2 -d 0 -p ack -e 40 -c 0 -i 14 -a 0 -x {4.0 0.0 5 ------- null}
+ -t 0.48496 -s 0 -d 2 -p tcp -e 1040 -c 0 -i 18 -a 0 -x {0.0 4.0 11 ------- null}
+ -t 0.48496 -s 0 -d 2 -p tcp -e 1040 -c 0 -i 19 -a 0 -x {0.0 4.0 12 ------- null}
- -t 0.48496 -s 0 -d 2 -p tcp -e 1040 -c 0 -i 18 -a 0 -x {0.0 4.0 11 ------- null}
h -t 0.48496 -s 0 -d 2 -p tcp -e 1040 -c 0 -i 18 -a 0 -x {0.0 4.0 -1 ------- null}
r -t 0.48664 -s 0 -d 2 -p tcp -e 1040 -c 0 -i 15 -a 0 -x {0.0 4.0 9 ------- null}
+ -t 0.48664 -s 2 -d 3 -p tcp -e 1040 -c 0 -i 15 -a 0 -x {0.0 4.0 9 ------- null}
- -t 0.48664 -s 2 -d 3 -p tcp -e 1040 -c 0 -i 13 -a 0 -x {0.0 4.0 8 ------- null}
h -t 0.48664 -s 2 -d 3 -p tcp -e 1040 -c 0 -i 13 -a 0 -x {0.0 4.0 -1 ------- null}
r -t 0.49128 -s 3 -d 2 -p ack -e 40 -c 0 -i 17 -a 0 -x {4.0 0.0 6 ------- null}
+ -t 0.49128 -s 2 -d 0 -p ack -e 40 -c 0 -i 17 -a 0 -x {4.0 0.0 6 ------- null}
- -t 0.49128 -s 2 -d 0 -p ack -e 40 -c 0 -i 17 -a 0 -x {4.0 0.0 6 ------- null}
h -t 0.49128 -s 2 -d 0 -p ack -e 40 -c 0 -i 17 -a 0 -x {4.0 0.0 -1 ------- null}
- -t 0.49328 -s 0 -d 2 -p tcp -e 1040 -c 0 -i 19 -a 0 -x {0.0 4.0 12 ------- null}
h -t 0.49328 -s 0 -d 2 -p tcp -e 1040 -c 0 -i 19 -a 0 -x {0.0 4.0 -1 ------- null}
r -t 0.49496 -s 0 -d 2 -p tcp -e 1040 -c 0 -i 16 -a 0 -x {0.0 4.0 10 ------- null}
+ -t 0.49496 -s 2 -d 3 -p tcp -e 1040 -c 0 -i 16 -a 0 -x {0.0 4.0 10 ------- null}
r -t 0.49664 -s 2 -d 3 -p tcp -e 1040 -c 0 -i 12 -a 0 -x {0.0 4.0 7 ------- null}
+ -t 0.49664 -s 3 -d 4 -p tcp -e 1040 -c 0 -i 12 -a 0 -x {0.0 4.0 7 ------- null}
- -t 0.49664 -s 3 -d 4 -p tcp -e 1040 -c 0 -i 12 -a 0 -x {0.0 4.0 7 ------- null}
h -t 0.49664 -s 3 -d 4 -p tcp -e 1040 -c 0 -i 12 -a 0 -x {0.0 4.0 -1 ------- null}
r -t 0.5016 -s 2 -d 0 -p ack -e 40 -c 0 -i 17 -a 0 -x {4.0 0.0 6 ------- null}
+ -t 0.5016 -s 0 -d 2 -p tcp -e 1040 -c 0 -i 20 -a 0 -x {0.0 4.0 13 ------- null}
+ -t 0.5016 -s 0 -d 2 -p tcp -e 1040 -c 0 -i 21 -a 0 -x {0.0 4.0 14 ------- null}
- -t 0.5016 -s 0 -d 2 -p tcp -e 1040 -c 0 -i 20 -a 0 -x {0.0 4.0 13 ------- null}
h -t 0.5016 -s 0 -d 2 -p tcp -e 1040 -c 0 -i 20 -a 0 -x {0.0 4.0 -1 ------- null}
r -t 0.50328 -s 0 -d 2 -p tcp -e 1040 -c 0 -i 18 -a 0 -x {0.0 4.0 11 ------- null}
+ -t 0.50328 -s 2 -d 3 -p tcp -e 1040 -c 0 -i 18 -a 0 -x {0.0 4.0 11 ------- null}
- -t 0.50328 -s 2 -d 3 -p tcp -e 1040 -c 0 -i 15 -a 0 -x {0.0 4.0 9 ------- null}
h -t 0.50328 -s 2 -d 3 -p tcp -e 1040 -c 0 -i 15 -a 0 -x {0.0 4.0 -1 ------- null}
- -t 0.50992 -s 0 -d 2 -p tcp -e 1040 -c 0 -i 21 -a 0 -x {0.0 4.0 14 ------- null}
h -t 0.50992 -s 0 -d 2 -p tcp -e 1040 -c 0 -i 21 -a 0 -x {0.0 4.0 -1 ------- null}
r -t 0.5116 -s 0 -d 2 -p tcp -e 1040 -c 0 -i 19 -a 0 -x {0.0 4.0 12 ------- null}
+ -t 0.5116 -s 2 -d 3 -p tcp -e 1040 -c 0 -i 19 -a 0 -x {0.0 4.0 12 ------- null}
r -t 0.51328 -s 2 -d 3 -p tcp -e 1040 -c 0 -i 13 -a 0 -x {0.0 4.0 8 ------- null}
+ -t 0.51328 -s 3 -d 4 -p tcp -e 1040 -c 0 -i 13 -a 0 -x {0.0 4.0 8 ------- null}
- -t 0.51328 -s 3 -d 4 -p tcp -e 1040 -c 0 -i 13 -a 0 -x {0.0 4.0 8 ------- null}
h -t 0.51328 -s 3 -d 4 -p tcp -e 1040 -c 0 -i 13 -a 0 -x {0.0 4.0 -1 ------- null}
r -t 0.51496 -s 3 -d 4 -p tcp -e 1040 -c 0 -i 12 -a 0 -x {0.0 4.0 7 ------- null}
+ -t 0.51496 -s 4 -d 3 -p ack -e 40 -c 0 -i 22 -a 0 -x {4.0 0.0 7 ------- null}
- -t 0.51496 -s 4 -d 3 -p ack -e 40 -c 0 -i 22 -a 0 -x {4.0 0.0 7 ------- null}
h -t 0.51496 -s 4 -d 3 -p ack -e 40 -c 0 -i 22 -a 0 -x {4.0 0.0 -1 ------- null}
r -t 0.51992 -s 0 -d 2 -p tcp -e 1040 -c 0 -i 20 -a 0 -x {0.0 4.0 13 ------- null}
+ -t 0.51992 -s 2 -d 3 -p tcp -e 1040 -c 0 -i 20 -a 0 -x {0.0 4.0 13 ------- null}
- -t 0.51992 -s 2 -d 3 -p tcp -e 1040 -c 0 -i 16 -a 0 -x {0.0 4.0 10 ------- null}
h -t 0.51992 -s 2 -d 3 -p tcp -e 1040 -c 0 -i 16 -a 0 -x {0.0 4.0 -1 ------- null}
r -t 0.52528 -s 4 -d 3 -p ack -e 40 -c 0 -i 22 -a 0 -x {4.0 0.0 7 ------- null}
+ -t 0.52528 -s 3 -d 2 -p ack -e 40 -c 0 -i 22 -a 0 -x {4.0 0.0 7 ------- null}
- -t 0.52528 -s 3 -d 2 -p ack -e 40 -c 0 -i 22 -a 0 -x {4.0 0.0 7 ------- null}
h -t 0.52528 -s 3 -d 2 -p ack -e 40 -c 0 -i 22 -a 0 -x {4.0 0.0 -1 ------- null}
r -t 0.52824 -s 0 -d 2 -p tcp -e 1040 -c 0 -i 21 -a 0 -x {0.0 4.0 14 ------- null}
+ -t 0.52824 -s 2 -d 3 -p tcp -e 1040 -c 0 -i 21 -a 0 -x {0.0 4.0 14 ------- null}
r -t 0.52992 -s 2 -d 3 -p tcp -e 1040 -c 0 -i 15 -a 0 -x {0.0 4.0 9 ------- null}
+ -t 0.52992 -s 3 -d 4 -p tcp -e 1040 -c 0 -i 15 -a 0 -x {0.0 4.0 9 ------- null}
- -t 0.52992 -s 3 -d 4 -p tcp -e 1040 -c 0 -i 15 -a 0 -x {0.0 4.0 9 ------- null}
h -t 0.52992 -s 3 -d 4 -p tcp -e 1040 -c 0 -i 15 -a 0 -x {0.0 4.0 -1 ------- null}
r -t 0.5316 -s 3 -d 4 -p tcp -e 1040 -c 0 -i 13 -a 0 -x {0.0 4.0 8 ------- null}
+ -t 0.5316 -s 4 -d 3 -p ack -e 40 -c 0 -i 23 -a 0 -x {4.0 0.0 8 ------- null}
- -t 0.5316 -s 4 -d 3 -p ack -e 40 -c 0 -i 23 -a 0 -x {4.0 0.0 8 ------- null}
h -t 0.5316 -s 4 -d 3 -p ack -e 40 -c 0 -i 23 -a 0 -x {4.0 0.0 -1 ------- null}
r -t 0.53592 -s 3 -d 2 -p ack -e 40 -c 0 -i 22 -a 0 -x {4.0 0.0 7 ------- null}
+ -t 0.53592 -s 2 -d 0 -p ack -e 40 -c 0 -i 22 -a 0 -x {4.0 0.0 7 ------- null}
- -t 0.53592 -s 2 -d 0 -p ack -e 40 -c 0 -i 22 -a 0 -x {4.0 0.0 7 ------- null}
h -t 0.53592 -s 2 -d 0 -p ack -e 40 -c 0 -i 22 -a 0 -x {4.0 0.0 -1 ------- null}
- -t 0.53656 -s 2 -d 3 -p tcp -e 1040 -c 0 -i 18 -a 0 -x {0.0 4.0 11 ------- null}
h -t 0.53656 -s 2 -d 3 -p tcp -e 1040 -c 0 -i 18 -a 0 -x {0.0 4.0 -1 ------- null}
r -t 0.54192 -s 4 -d 3 -p ack -e 40 -c 0 -i 23 -a 0 -x {4.0 0.0 8 ------- null}
+ -t 0.54192 -s 3 -d 2 -p ack -e 40 -c 0 -i 23 -a 0 -x {4.0 0.0 8 ------- null}
- -t 0.54192 -s 3 -d 2 -p ack -e 40 -c 0 -i 23 -a 0 -x {4.0 0.0 8 ------- null}
h -t 0.54192 -s 3 -d 2 -p ack -e 40 -c 0 -i 23 -a 0 -x {4.0 0.0 -1 ------- null}
r -t 0.54624 -s 2 -d 0 -p ack -e 40 -c 0 -i 22 -a 0 -x {4.0 0.0 7 ------- null}
+ -t 0.54624 -s 0 -d 2 -p tcp -e 1040 -c 0 -i 24 -a 0 -x {0.0 4.0 15 ------- null}
- -t 0.54624 -s 0 -d 2 -p tcp -e 1040 -c 0 -i 24 -a 0 -x {0.0 4.0 15 ------- null}
h -t 0.54624 -s 0 -d 2 -p tcp -e 1040 -c 0 -i 24 -a 0 -x {0.0 4.0 -1 ------- null}
+ -t 0.54624 -s 0 -d 2 -p tcp -e 1040 -c 0 -i 25 -a 0 -x {0.0 4.0 16 ------- null}
r -t 0.54656 -s 2 -d 3 -p tcp -e 1040 -c 0 -i 16 -a 0 -x {0.0 4.0 10 ------- null}
+ -t 0.54656 -s 3 -d 4 -p tcp -e 1040 -c 0 -i 16 -a 0 -x {0.0 4.0 10 ------- null}
- -t 0.54656 -s 3 -d 4 -p tcp -e 1040 -c 0 -i 16 -a 0 -x {0.0 4.0 10 ------- null}
h -t 0.54656 -s 3 -d 4 -p tcp -e 1040 -c 0 -i 16 -a 0 -x {0.0 4.0 -1 ------- null}
r -t 0.54824 -s 3 -d 4 -p tcp -e 1040 -c 0 -i 15 -a 0 -x {0.0 4.0 9 ------- null}
+ -t 0.54824 -s 4 -d 3 -p ack -e 40 -c 0 -i 26 -a 0 -x {4.0 0.0 9 ------- null}
- -t 0.54824 -s 4 -d 3 -p ack -e 40 -c 0 -i 26 -a 0 -x {4.0 0.0 9 ------- null}
h -t 0.54824 -s 4 -d 3 -p ack -e 40 -c 0 -i 26 -a 0 -x {4.0 0.0 -1 ------- null}
r -t 0.55256 -s 3 -d 2 -p ack -e 40 -c 0 -i 23 -a 0 -x {4.0 0.0 8 ------- null}
+ -t 0.55256 -s 2 -d 0 -p ack -e 40 -c 0 -i 23 -a 0 -x {4.0 0.0 8 ------- null}
- -t 0.55256 -s 2 -d 0 -p ack -e 40 -c 0 -i 23 -a 0 -x {4.0 0.0 8 ------- null}
h -t 0.55256 -s 2 -d 0 -p ack -e 40 -c 0 -i 23 -a 0 -x {4.0 0.0 -1 ------- null}
- -t 0.5532 -s 2 -d 3 -p tcp -e 1040 -c 0 -i 19 -a 0 -x {0.0 4.0 12 ------- null}
h -t 0.5532 -s 2 -d 3 -p tcp -e 1040 -c 0 -i 19 -a 0 -x {0.0 4.0 -1 ------- null}
- -t 0.55456 -s 0 -d 2 -p tcp -e 1040 -c 0 -i 25 -a 0 -x {0.0 4.0 16 ------- null}
h -t 0.55456 -s 0 -d 2 -p tcp -e 1040 -c 0 -i 25 -a 0 -x {0.0 4.0 -1 ------- null}
r -t 0.55856 -s 4 -d 3 -p ack -e 40 -c 0 -i 26 -a 0 -x {4.0 0.0 9 ------- null}
+ -t 0.55856 -s 3 -d 2 -p ack -e 40 -c 0 -i 26 -a 0 -x {4.0 0.0 9 ------- null}
- -t 0.55856 -s 3 -d 2 -p ack -e 40 -c 0 -i 26 -a 0 -x {4.0 0.0 9 ------- null}
h -t 0.55856 -s 3 -d 2 -p ack -e 40 -c 0 -i 26 -a 0 -x {4.0 0.0 -1 ------- null}
r -t 0.56288 -s 2 -d 0 -p ack -e 40 -c 0 -i 23 -a 0 -x {4.0 0.0 8 ------- null}
+ -t 0.56288 -s 0 -d 2 -p tcp -e 1040 -c 0 -i 27 -a 0 -x {0.0 4.0 17 ------- null}
+ -t 0.56288 -s 0 -d 2 -p tcp -e 1040 -c 0 -i 28 -a 0 -x {0.0 4.0 18 ------- null}
- -t 0.56288 -s 0 -d 2 -p tcp -e 1040 -c 0 -i 27 -a 0 -x {0.0 4.0 17 ------- null}
h -t 0.56288 -s 0 -d 2 -p tcp -e 1040 -c 0 -i 27 -a 0 -x {0.0 4.0 -1 ------- null}
r -t 0.5632 -s 2 -d 3 -p tcp -e 1040 -c 0 -i 18 -a 0 -x {0.0 4.0 11 ------- null}
+ -t 0.5632 -s 3 -d 4 -p tcp -e 1040 -c 0 -i 18 -a 0 -x {0.0 4.0 11 ------- null}
- -t 0.5632 -s 3 -d 4 -p tcp -e 1040 -c 0 -i 18 -a 0 -x {0.0 4.0 11 ------- null}
h -t 0.5632 -s 3 -d 4 -p tcp -e 1040 -c 0 -i 18 -a 0 -x {0.0 4.0 -1 ------- null}
r -t 0.56456 -s 0 -d 2 -p tcp -e 1040 -c 0 -i 24 -a 0 -x {0.0 4.0 15 ------- null}
+ -t 0.56456 -s 2 -d 3 -p tcp -e 1040 -c 0 -i 24 -a 0 -x {0.0 4.0 15 ------- null}
r -t 0.56488 -s 3 -d 4 -p tcp -e 1040 -c 0 -i 16 -a 0 -x {0.0 4.0 10 ------- null}
+ -t 0.56488 -s 4 -d 3 -p ack -e 40 -c 0 -i 29 -a 0 -x {4.0 0.0 10 ------- null}
- -t 0.56488 -s 4 -d 3 -p ack -e 40 -c 0 -i 29 -a 0 -x {4.0 0.0 10 ------- null}
h -t 0.56488 -s 4 -d 3 -p ack -e 40 -c 0 -i 29 -a 0 -x {4.0 0.0 -1 ------- null}
r -t 0.5692 -s 3 -d 2 -p ack -e 40 -c 0 -i 26 -a 0 -x {4.0 0.0 9 ------- null}
+ -t 0.5692 -s 2 -d 0 -p ack -e 40 -c 0 -i 26 -a 0 -x {4.0 0.0 9 ------- null}
- -t 0.5692 -s 2 -d 0 -p ack -e 40 -c 0 -i 26 -a 0 -x {4.0 0.0 9 ------- null}
h -t 0.5692 -s 2 -d 0 -p ack -e 40 -c 0 -i 26 -a 0 -x {4.0 0.0 -1 ------- null}
- -t 0.56984 -s 2 -d 3 -p tcp -e 1040 -c 0 -i 20 -a 0 -x {0.0 4.0 13 ------- null}
h -t 0.56984 -s 2 -d 3 -p tcp -e 1040 -c 0 -i 20 -a 0 -x {0.0 4.0 -1 ------- null}
- -t 0.5712 -s 0 -d 2 -p tcp -e 1040 -c 0 -i 28 -a 0 -x {0.0 4.0 18 ------- null}
h -t 0.5712 -s 0 -d 2 -p tcp -e 1040 -c 0 -i 28 -a 0 -x {0.0 4.0 -1 ------- null}
r -t 0.57288 -s 0 -d 2 -p tcp -e 1040 -c 0 -i 25 -a 0 -x {0.0 4.0 16 ------- null}
+ -t 0.57288 -s 2 -d 3 -p tcp -e 1040 -c 0 -i 25 -a 0 -x {0.0 4.0 16 ------- null}
r -t 0.5752 -s 4 -d 3 -p ack -e 40 -c 0 -i 29 -a 0 -x {4.0 0.0 10 ------- null}
+ -t 0.5752 -s 3 -d 2 -p ack -e 40 -c 0 -i 29 -a 0 -x {4.0 0.0 10 ------- null}
- -t 0.5752 -s 3 -d 2 -p ack -e 40 -c 0 -i 29 -a 0 -x {4.0 0.0 10 ------- null}
h -t 0.5752 -s 3 -d 2 -p ack -e 40 -c 0 -i 29 -a 0 -x {4.0 0.0 -1 ------- null}
r -t 0.57952 -s 2 -d 0 -p ack -e 40 -c 0 -i 26 -a 0 -x {4.0 0.0 9 ------- null}
+ -t 0.57952 -s 0 -d 2 -p tcp -e 1040 -c 0 -i 30 -a 0 -x {0.0 4.0 19 ------- null}
+ -t 0.57952 -s 0 -d 2 -p tcp -e 1040 -c 0 -i 31 -a 0 -x {0.0 4.0 20 ------- null}
- -t 0.57952 -s 0 -d 2 -p tcp -e 1040 -c 0 -i 30 -a 0 -x {0.0 4.0 19 ------- null}
h -t 0.57952 -s 0 -d 2 -p tcp -e 1040 -c 0 -i 30 -a 0 -x {0.0 4.0 -1 ------- null}
r -t 0.57984 -s 2 -d 3 -p tcp -e 1040 -c 0 -i 19 -a 0 -x {0.0 4.0 12 ------- null}
+ -t 0.57984 -s 3 -d 4 -p tcp -e 1040 -c 0 -i 19 -a 0 -x {0.0 4.0 12 ------- null}
- -t 0.57984 -s 3 -d 4 -p tcp -e 1040 -c 0 -i 19 -a 0 -x {0.0 4.0 12 ------- null}
h -t 0.57984 -s 3 -d 4 -p tcp -e 1040 -c 0 -i 19 -a 0 -x {0.0 4.0 -1 ------- null}
r -t 0.5812 -s 0 -d 2 -p tcp -e 1040 -c 0 -i 27 -a 0 -x {0.0 4.0 17 ------- null}
+ -t 0.5812 -s 2 -d 3 -p tcp -e 1040 -c 0 -i 27 -a 0 -x {0.0 4.0 17 ------- null}
r -t 0.58152 -s 3 -d 4 -p tcp -e 1040 -c 0 -i 18 -a 0 -x {0.0 4.0 11 ------- null}
+ -t 0.58152 -s 4 -d 3 -p ack -e 40 -c 0 -i 32 -a 0 -x {4.0 0.0 11 ------- null}
- -t 0.58152 -s 4 -d 3 -p ack -e 40 -c 0 -i 32 -a 0 -x {4.0 0.0 11 ------- null}
h -t 0.58152 -s 4 -d 3 -p ack -e 40 -c 0 -i 32 -a 0 -x {4.0 0.0 -1 ------- null}
r -t 0.58584 -s 3 -d 2 -p ack -e 40 -c 0 -i 29 -a 0 -x {4.0 0.0 10 ------- null}
+ -t 0.58584 -s 2 -d 0 -p ack -e 40 -c 0 -i 29 -a 0 -x {4.0 0.0 10 ------- null}
- -t 0.58584 -s 2 -d 0 -p ack -e 40 -c 0 -i 29 -a 0 -x {4.0 0.0 10 ------- null}
h -t 0.58584 -s 2 -d 0 -p ack -e 40 -c 0 -i 29 -a 0 -x {4.0 0.0 -1 ------- null}
- -t 0.58648 -s 2 -d 3 -p tcp -e 1040 -c 0 -i 21 -a 0 -x {0.0 4.0 14 ------- null}
h -t 0.58648 -s 2 -d 3 -p tcp -e 1040 -c 0 -i 21 -a 0 -x {0.0 4.0 -1 ------- null}
- -t 0.58784 -s 0 -d 2 -p tcp -e 1040 -c 0 -i 31 -a 0 -x {0.0 4.0 20 ------- null}
h -t 0.58784 -s 0 -d 2 -p tcp -e 1040 -c 0 -i 31 -a 0 -x {0.0 4.0 -1 ------- null}
r -t 0.58952 -s 0 -d 2 -p tcp -e 1040 -c 0 -i 28 -a 0 -x {0.0 4.0 18 ------- null}
+ -t 0.58952 -s 2 -d 3 -p tcp -e 1040 -c 0 -i 28 -a 0 -x {0.0 4.0 18 ------- null}
r -t 0.59184 -s 4 -d 3 -p ack -e 40 -c 0 -i 32 -a 0 -x {4.0 0.0 11 ------- null}
+ -t 0.59184 -s 3 -d 2 -p ack -e 40 -c 0 -i 32 -a 0 -x {4.0 0.0 11 ------- null}
- -t 0.59184 -s 3 -d 2 -p ack -e 40 -c 0 -i 32 -a 0 -x {4.0 0.0 11 ------- null}
h -t 0.59184 -s 3 -d 2 -p ack -e 40 -c 0 -i 32 -a 0 -x {4.0 0.0 -1 ------- null}
r -t 0.59616 -s 2 -d 0 -p ack -e 40 -c 0 -i 29 -a 0 -x {4.0 0.0 10 ------- null}
+ -t 0.59616 -s 0 -d 2 -p tcp -e 1040 -c 0 -i 33 -a 0 -x {0.0 4.0 21 ------- null}
+ -t 0.59616 -s 0 -d 2 -p tcp -e 1040 -c 0 -i 34 -a 0 -x {0.0 4.0 22 ------- null}
- -t 0.59616 -s 0 -d 2 -p tcp -e 1040 -c 0 -i 33 -a 0 -x {0.0 4.0 21 ------- null}
h -t 0.59616 -s 0 -d 2 -p tcp -e 1040 -c 0 -i 33 -a 0 -x {0.0 4.0 -1 ------- null}
r -t 0.59648 -s 2 -d 3 -p tcp -e 1040 -c 0 -i 20 -a 0 -x {0.0 4.0 13 ------- null}
+ -t 0.59648 -s 3 -d 4 -p tcp -e 1040 -c 0 -i 20 -a 0 -x {0.0 4.0 13 ------- null}
- -t 0.59648 -s 3 -d 4 -p tcp -e 1040 -c 0 -i 20 -a 0 -x {0.0 4.0 13 ------- null}
h -t 0.59648 -s 3 -d 4 -p tcp -e 1040 -c 0 -i 20 -a 0 -x {0.0 4.0 -1 ------- null}
r -t 0.59784 -s 0 -d 2 -p tcp -e 1040 -c 0 -i 30 -a 0 -x {0.0 4.0 19 ------- null}
+ -t 0.59784 -s 2 -d 3 -p tcp -e 1040 -c 0 -i 30 -a 0 -x {0.0 4.0 19 ------- null}
r -t 0.59816 -s 3 -d 4 -p tcp -e 1040 -c 0 -i 19 -a 0 -x {0.0 4.0 12 ------- null}
+ -t 0.59816 -s 4 -d 3 -p ack -e 40 -c 0 -i 35 -a 0 -x {4.0 0.0 12 ------- null}
- -t 0.59816 -s 4 -d 3 -p ack -e 40 -c 0 -i 35 -a 0 -x {4.0 0.0 12 ------- null}
h -t 0.59816 -s 4 -d 3 -p ack -e 40 -c 0 -i 35 -a 0 -x {4.0 0.0 -1 ------- null}
r -t 0.60248 -s 3 -d 2 -p ack -e 40 -c 0 -i 32 -a 0 -x {4.0 0.0 11 ------- null}
+ -t 0.60248 -s 2 -d 0 -p ack -e 40 -c 0 -i 32 -a 0 -x {4.0 0.0 11 ------- null}
- -t 0.60248 -s 2 -d 0 -p ack -e 40 -c 0 -i 32 -a 0 -x {4.0 0.0 11 ------- null}
h -t 0.60248 -s 2 -d 0 -p ack -e 40 -c 0 -i 32 -a 0 -x {4.0 0.0 -1 ------- null}
- -t 0.60312 -s 2 -d 3 -p tcp -e 1040 -c 0 -i 24 -a 0 -x {0.0 4.0 15 ------- null}
h -t 0.60312 -s 2 -d 3 -p tcp -e 1040 -c 0 -i 24 -a 0 -x {0.0 4.0 -1 ------- null}
- -t 0.60448 -s 0 -d 2 -p tcp -e 1040 -c 0 -i 34 -a 0 -x {0.0 4.0 22 ------- null}
h -t 0.60448 -s 0 -d 2 -p tcp -e 1040 -c 0 -i 34 -a 0 -x {0.0 4.0 -1 ------- null}
r -t 0.60616 -s 0 -d 2 -p tcp -e 1040 -c 0 -i 31 -a 0 -x {0.0 4.0 20 ------- null}
+ -t 0.60616 -s 2 -d 3 -p tcp -e 1040 -c 0 -i 31 -a 0 -x {0.0 4.0 20 ------- null}
r -t 0.60848 -s 4 -d 3 -p ack -e 40 -c 0 -i 35 -a 0 -x {4.0 0.0 12 ------- null}
+ -t 0.60848 -s 3 -d 2 -p ack -e 40 -c 0 -i 35 -a 0 -x {4.0 0.0 12 ------- null}