+ 0.2 0 2 tcp 40 ------- 0 0.0 4.0 0 0
- 0.2 0 2 tcp 40 ------- 0 0.0 4.0 0 0
r 0.21032 0 2 tcp 40 ------- 0 0.0 4.0 0 0
+ 0.21032 2 3 tcp 40 ------- 0 0.0 4.0 0 0
- 0.21032 2 3 tcp 40 ------- 0 0.0 4.0 0 0
r 0.22096 2 3 tcp 40 ------- 0 0.0 4.0 0 0
+ 0.22096 3 4 tcp 40 ------- 0 0.0 4.0 0 0
- 0.22096 3 4 tcp 40 ------- 0 0.0 4.0 0 0
r 0.23128 3 4 tcp 40 ------- 0 0.0 4.0 0 0
+ 0.23128 4 3 ack 40 ------- 0 4.0 0.0 0 1
- 0.23128 4 3 ack 40 ------- 0 4.0 0.0 0 1
r 0.2416 4 3 ack 40 ------- 0 4.0 0.0 0 1
+ 0.2416 3 2 ack 40 ------- 0 4.0 0.0 0 1
- 0.2416 3 2 ack 40 ------- 0 4.0 0.0 0 1
r 0.25224 3 2 ack 40 ------- 0 4.0 0.0 0 1
+ 0.25224 2 0 ack 40 ------- 0 4.0 0.0 0 1
- 0.25224 2 0 ack 40 ------- 0 4.0 0.0 0 1
r 0.26256 2 0 ack 40 ------- 0 4.0 0.0 0 1
+ 0.26256 0 2 tcp 1040 ------- 0 0.0 4.0 1 2
- 0.26256 0 2 tcp 1040 ------- 0 0.0 4.0 1 2
+ 0.26256 0 2 tcp 1040 ------- 0 0.0 4.0 2 3
- 0.27088 0 2 tcp 1040 ------- 0 0.0 4.0 2 3
r 0.28088 0 2 tcp 1040 ------- 0 0.0 4.0 1 2
+ 0.28088 2 3 tcp 1040 ------- 0 0.0 4.0 1 2
- 0.28088 2 3 tcp 1040 ------- 0 0.0 4.0 1 2
r 0.2892 0 2 tcp 1040 ------- 0 0.0 4.0 2 3
+ 0.2892 2 3 tcp 1040 ------- 0 0.0 4.0 2 3
- 0.29752 2 3 tcp 1040 ------- 0 0.0 4.0 2 3
r 0.30752 2 3 tcp 1040 ------- 0 0.0 4.0 1 2
+ 0.30752 3 4 tcp 1040 ------- 0 0.0 4.0 1 2
- 0.30752 3 4 tcp 1040 ------- 0 0.0 4.0 1 2
r 0.32416 2 3 tcp 1040 ------- 0 0.0 4.0 2 3
+ 0.32416 3 4 tcp 1040 ------- 0 0.0 4.0 2 3
- 0.32416 3 4 tcp 1040 ------- 0 0.0 4.0 2 3
r 0.32584 3 4 tcp 1040 ------- 0 0.0 4.0 1 2
+ 0.32584 4 3 ack 40 ------- 0 4.0 0.0 1 4
- 0.32584 4 3 ack 40 ------- 0 4.0 0.0 1 4
r 0.33616 4 3 ack 40 ------- 0 4.0 0.0 1 4
+ 0.33616 3 2 ack 40 ------- 0 4.0 0.0 1 4
- 0.33616 3 2 ack 40 ------- 0 4.0 0.0 1 4
r 0.34248 3 4 tcp 1040 ------- 0 0.0 4.0 2 3
+ 0.34248 4 3 ack 40 ------- 0 4.0 0.0 2 5
- 0.34248 4 3 ack 40 ------- 0 4.0 0.0 2 5
r 0.3468 3 2 ack 40 ------- 0 4.0 0.0 1 4
+ 0.3468 2 0 ack 40 ------- 0 4.0 0.0 1 4
- 0.3468 2 0 ack 40 ------- 0 4.0 0.0 1 4
r 0.3528 4 3 ack 40 ------- 0 4.0 0.0 2 5
+ 0.3528 3 2 ack 40 ------- 0 4.0 0.0 2 5
- 0.3528 3 2 ack 40 ------- 0 4.0 0.0 2 5
r 0.35712 2 0 ack 40 ------- 0 4.0 0.0 1 4
+ 0.35712 0 2 tcp 1040 ------- 0 0.0 4.0 3 6
- 0.35712 0 2 tcp 1040 ------- 0 0.0 4.0 3 6
+ 0.35712 0 2 tcp 1040 ------- 0 0.0 4.0 4 7
r 0.36344 3 2 ack 40 ------- 0 4.0 0.0 2 5
+ 0.36344 2 0 ack 40 ------- 0 4.0 0.0 2 5
- 0.36344 2 0 ack 40 ------- 0 4.0 0.0 2 5
- 0.36544 0 2 tcp 1040 ------- 0 0.0 4.0 4 7
r 0.37376 2 0 ack 40 ------- 0 4.0 0.0 2 5
+ 0.37376 0 2 tcp 1040 ------- 0 0.0 4.0 5 8
+ 0.37376 0 2 tcp 1040 ------- 0 0.0 4.0 6 9
- 0.37376 0 2 tcp 1040 ------- 0 0.0 4.0 5 8
r 0.37544 0 2 tcp 1040 ------- 0 0.0 4.0 3 6
+ 0.37544 2 3 tcp 1040 ------- 0 0.0 4.0 3 6
- 0.37544 2 3 tcp 1040 ------- 0 0.0 4.0 3 6
- 0.38208 0 2 tcp 1040 ------- 0 0.0 4.0 6 9
r 0.38376 0 2 tcp 1040 ------- 0 0.0 4.0 4 7
+ 0.38376 2 3 tcp 1040 ------- 0 0.0 4.0 4 7
r 0.39208 0 2 tcp 1040 ------- 0 0.0 4.0 5 8
+ 0.39208 2 3 tcp 1040 ------- 0 0.0 4.0 5 8
- 0.39208 2 3 tcp 1040 ------- 0 0.0 4.0 4 7
r 0.4004 0 2 tcp 1040 ------- 0 0.0 4.0 6 9
+ 0.4004 2 3 tcp 1040 ------- 0 0.0 4.0 6 9
r 0.40208 2 3 tcp 1040 ------- 0 0.0 4.0 3 6
+ 0.40208 3 4 tcp 1040 ------- 0 0.0 4.0 3 6
- 0.40208 3 4 tcp 1040 ------- 0 0.0 4.0 3 6
- 0.40872 2 3 tcp 1040 ------- 0 0.0 4.0 5 8
r 0.41872 2 3 tcp 1040 ------- 0 0.0 4.0 4 7
+ 0.41872 3 4 tcp 1040 ------- 0 0.0 4.0 4 7
- 0.41872 3 4 tcp 1040 ------- 0 0.0 4.0 4 7
r 0.4204 3 4 tcp 1040 ------- 0 0.0 4.0 3 6
+ 0.4204 4 3 ack 40 ------- 0 4.0 0.0 3 10
- 0.4204 4 3 ack 40 ------- 0 4.0 0.0 3 10
- 0.42536 2 3 tcp 1040 ------- 0 0.0 4.0 6 9
r 0.43072 4 3 ack 40 ------- 0 4.0 0.0 3 10
+ 0.43072 3 2 ack 40 ------- 0 4.0 0.0 3 10
- 0.43072 3 2 ack 40 ------- 0 4.0 0.0 3 10
r 0.43536 2 3 tcp 1040 ------- 0 0.0 4.0 5 8
+ 0.43536 3 4 tcp 1040 ------- 0 0.0 4.0 5 8
- 0.43536 3 4 tcp 1040 ------- 0 0.0 4.0 5 8
r 0.43704 3 4 tcp 1040 ------- 0 0.0 4.0 4 7
+ 0.43704 4 3 ack 40 ------- 0 4.0 0.0 4 11
- 0.43704 4 3 ack 40 ------- 0 4.0 0.0 4 11
r 0.44136 3 2 ack 40 ------- 0 4.0 0.0 3 10
+ 0.44136 2 0 ack 40 ------- 0 4.0 0.0 3 10
- 0.44136 2 0 ack 40 ------- 0 4.0 0.0 3 10
r 0.44736 4 3 ack 40 ------- 0 4.0 0.0 4 11
+ 0.44736 3 2 ack 40 ------- 0 4.0 0.0 4 11
- 0.44736 3 2 ack 40 ------- 0 4.0 0.0 4 11
r 0.45168 2 0 ack 40 ------- 0 4.0 0.0 3 10
+ 0.45168 0 2 tcp 1040 ------- 0 0.0 4.0 7 12
- 0.45168 0 2 tcp 1040 ------- 0 0.0 4.0 7 12
+ 0.45168 0 2 tcp 1040 ------- 0 0.0 4.0 8 13
r 0.452 2 3 tcp 1040 ------- 0 0.0 4.0 6 9
+ 0.452 3 4 tcp 1040 ------- 0 0.0 4.0 6 9
- 0.452 3 4 tcp 1040 ------- 0 0.0 4.0 6 9
r 0.45368 3 4 tcp 1040 ------- 0 0.0 4.0 5 8
+ 0.45368 4 3 ack 40 ------- 0 4.0 0.0 5 14
- 0.45368 4 3 ack 40 ------- 0 4.0 0.0 5 14
r 0.458 3 2 ack 40 ------- 0 4.0 0.0 4 11
+ 0.458 2 0 ack 40 ------- 0 4.0 0.0 4 11
- 0.458 2 0 ack 40 ------- 0 4.0 0.0 4 11
- 0.46 0 2 tcp 1040 ------- 0 0.0 4.0 8 13
r 0.464 4 3 ack 40 ------- 0 4.0 0.0 5 14
+ 0.464 3 2 ack 40 ------- 0 4.0 0.0 5 14
- 0.464 3 2 ack 40 ------- 0 4.0 0.0 5 14
r 0.46832 2 0 ack 40 ------- 0 4.0 0.0 4 11
+ 0.46832 0 2 tcp 1040 ------- 0 0.0 4.0 9 15
+ 0.46832 0 2 tcp 1040 ------- 0 0.0 4.0 10 16
- 0.46832 0 2 tcp 1040 ------- 0 0.0 4.0 9 15
r 0.47 0 2 tcp 1040 ------- 0 0.0 4.0 7 12
+ 0.47 2 3 tcp 1040 ------- 0 0.0 4.0 7 12
- 0.47 2 3 tcp 1040 ------- 0 0.0 4.0 7 12
r 0.47032 3 4 tcp 1040 ------- 0 0.0 4.0 6 9
+ 0.47032 4 3 ack 40 ------- 0 4.0 0.0 6 17
- 0.47032 4 3 ack 40 ------- 0 4.0 0.0 6 17
r 0.47464 3 2 ack 40 ------- 0 4.0 0.0 5 14
+ 0.47464 2 0 ack 40 ------- 0 4.0 0.0 5 14
- 0.47464 2 0 ack 40 ------- 0 4.0 0.0 5 14
- 0.47664 0 2 tcp 1040 ------- 0 0.0 4.0 10 16
r 0.47832 0 2 tcp 1040 ------- 0 0.0 4.0 8 13
+ 0.47832 2 3 tcp 1040 ------- 0 0.0 4.0 8 13
r 0.48064 4 3 ack 40 ------- 0 4.0 0.0 6 17
+ 0.48064 3 2 ack 40 ------- 0 4.0 0.0 6 17
- 0.48064 3 2 ack 40 ------- 0 4.0 0.0 6 17
r 0.48496 2 0 ack 40 ------- 0 4.0 0.0 5 14
+ 0.48496 0 2 tcp 1040 ------- 0 0.0 4.0 11 18
+ 0.48496 0 2 tcp 1040 ------- 0 0.0 4.0 12 19
- 0.48496 0 2 tcp 1040 ------- 0 0.0 4.0 11 18
r 0.48664 0 2 tcp 1040 ------- 0 0.0 4.0 9 15
+ 0.48664 2 3 tcp 1040 ------- 0 0.0 4.0 9 15
- 0.48664 2 3 tcp 1040 ------- 0 0.0 4.0 8 13
r 0.49128 3 2 ack 40 ------- 0 4.0 0.0 6 17
+ 0.49128 2 0 ack 40 ------- 0 4.0 0.0 6 17
- 0.49128 2 0 ack 40 ------- 0 4.0 0.0 6 17
- 0.49328 0 2 tcp 1040 ------- 0 0.0 4.0 12 19
r 0.49496 0 2 tcp 1040 ------- 0 0.0 4.0 10 16
+ 0.49496 2 3 tcp 1040 ------- 0 0.0 4.0 10 16
r 0.49664 2 3 tcp 1040 ------- 0 0.0 4.0 7 12
+ 0.49664 3 4 tcp 1040 ------- 0 0.0 4.0 7 12
- 0.49664 3 4 tcp 1040 ------- 0 0.0 4.0 7 12
r 0.5016 2 0 ack 40 ------- 0 4.0 0.0 6 17
+ 0.5016 0 2 tcp 1040 ------- 0 0.0 4.0 13 20
+ 0.5016 0 2 tcp 1040 ------- 0 0.0 4.0 14 21
- 0.5016 0 2 tcp 1040 ------- 0 0.0 4.0 13 20
r 0.50328 0 2 tcp 1040 ------- 0 0.0 4.0 11 18
+ 0.50328 2 3 tcp 1040 ------- 0 0.0 4.0 11 18
- 0.50328 2 3 tcp 1040 ------- 0 0.0 4.0 9 15
- 0.50992 0 2 tcp 1040 ------- 0 0.0 4.0 14 21
r 0.5116 0 2 tcp 1040 ------- 0 0.0 4.0 12 19
+ 0.5116 2 3 tcp 1040 ------- 0 0.0 4.0 12 19
r 0.51328 2 3 tcp 1040 ------- 0 0.0 4.0 8 13
+ 0.51328 3 4 tcp 1040 ------- 0 0.0 4.0 8 13
- 0.51328 3 4 tcp 1040 ------- 0 0.0 4.0 8 13
r 0.51496 3 4 tcp 1040 ------- 0 0.0 4.0 7 12
+ 0.51496 4 3 ack 40 ------- 0 4.0 0.0 7 22
- 0.51496 4 3 ack 40 ------- 0 4.0 0.0 7 22
r 0.51992 0 2 tcp 1040 ------- 0 0.0 4.0 13 20
+ 0.51992 2 3 tcp 1040 ------- 0 0.0 4.0 13 20
- 0.51992 2 3 tcp 1040 ------- 0 0.0 4.0 10 16
r 0.52528 4 3 ack 40 ------- 0 4.0 0.0 7 22
+ 0.52528 3 2 ack 40 ------- 0 4.0 0.0 7 22
- 0.52528 3 2 ack 40 ------- 0 4.0 0.0 7 22
r 0.52824 0 2 tcp 1040 ------- 0 0.0 4.0 14 21
+ 0.52824 2 3 tcp 1040 ------- 0 0.0 4.0 14 21
r 0.52992 2 3 tcp 1040 ------- 0 0.0 4.0 9 15
+ 0.52992 3 4 tcp 1040 ------- 0 0.0 4.0 9 15
- 0.52992 3 4 tcp 1040 ------- 0 0.0 4.0 9 15
r 0.5316 3 4 tcp 1040 ------- 0 0.0 4.0 8 13
+ 0.5316 4 3 ack 40 ------- 0 4.0 0.0 8 23
- 0.5316 4 3 ack 40 ------- 0 4.0 0.0 8 23
r 0.53592 3 2 ack 40 ------- 0 4.0 0.0 7 22
+ 0.53592 2 0 ack 40 ------- 0 4.0 0.0 7 22
- 0.53592 2 0 ack 40 ------- 0 4.0 0.0 7 22
- 0.53656 2 3 tcp 1040 ------- 0 0.0 4.0 11 18
r 0.54192 4 3 ack 40 ------- 0 4.0 0.0 8 23
+ 0.54192 3 2 ack 40 ------- 0 4.0 0.0 8 23
- 0.54192 3 2 ack 40 ------- 0 4.0 0.0 8 23
r 0.54624 2 0 ack 40 ------- 0 4.0 0.0 7 22
+ 0.54624 0 2 tcp 1040 ------- 0 0.0 4.0 15 24
- 0.54624 0 2 tcp 1040 ------- 0 0.0 4.0 15 24
+ 0.54624 0 2 tcp 1040 ------- 0 0.0 4.0 16 25
r 0.54656 2 3 tcp 1040 ------- 0 0.0 4.0 10 16
+ 0.54656 3 4 tcp 1040 ------- 0 0.0 4.0 10 16
- 0.54656 3 4 tcp 1040 ------- 0 0.0 4.0 10 16
r 0.54824 3 4 tcp 1040 ------- 0 0.0 4.0 9 15
+ 0.54824 4 3 ack 40 ------- 0 4.0 0.0 9 26
- 0.54824 4 3 ack 40 ------- 0 4.0 0.0 9 26
r 0.55256 3 2 ack 40 ------- 0 4.0 0.0 8 23
+ 0.55256 2 0 ack 40 ------- 0 4.0 0.0 8 23
- 0.55256 2 0 ack 40 ------- 0 4.0 0.0 8 23
- 0.5532 2 3 tcp 1040 ------- 0 0.0 4.0 12 19
- 0.55456 0 2 tcp 1040 ------- 0 0.0 4.0 16 25
r 0.55856 4 3 ack 40 ------- 0 4.0 0.0 9 26
+ 0.55856 3 2 ack 40 ------- 0 4.0 0.0 9 26
- 0.55856 3 2 ack 40 ------- 0 4.0 0.0 9 26
r 0.56288 2 0 ack 40 ------- 0 4.0 0.0 8 23
+ 0.56288 0 2 tcp 1040 ------- 0 0.0 4.0 17 27
+ 0.56288 0 2 tcp 1040 ------- 0 0.0 4.0 18 28
- 0.56288 0 2 tcp 1040 ------- 0 0.0 4.0 17 27
r 0.5632 2 3 tcp 1040 ------- 0 0.0 4.0 11 18
+ 0.5632 3 4 tcp 1040 ------- 0 0.0 4.0 11 18
- 0.5632 3 4 tcp 1040 ------- 0 0.0 4.0 11 18
r 0.56456 0 2 tcp 1040 ------- 0 0.0 4.0 15 24
+ 0.56456 2 3 tcp 1040 ------- 0 0.0 4.0 15 24
r 0.56488 3 4 tcp 1040 ------- 0 0.0 4.0 10 16
+ 0.56488 4 3 ack 40 ------- 0 4.0 0.0 10 29
- 0.56488 4 3 ack 40 ------- 0 4.0 0.0 10 29
r 0.5692 3 2 ack 40 ------- 0 4.0 0.0 9 26
+ 0.5692 2 0 ack 40 ------- 0 4.0 0.0 9 26
- 0.5692 2 0 ack 40 ------- 0 4.0 0.0 9 26
- 0.56984 2 3 tcp 1040 ------- 0 0.0 4.0 13 20
- 0.5712 0 2 tcp 1040 ------- 0 0.0 4.0 18 28
r 0.57288 0 2 tcp 1040 ------- 0 0.0 4.0 16 25
+ 0.57288 2 3 tcp 1040 ------- 0 0.0 4.0 16 25
r 0.5752 4 3 ack 40 ------- 0 4.0 0.0 10 29
+ 0.5752 3 2 ack 40 ------- 0 4.0 0.0 10 29
- 0.5752 3 2 ack 40 ------- 0 4.0 0.0 10 29
r 0.57952 2 0 ack 40 ------- 0 4.0 0.0 9 26
+ 0.57952 0 2 tcp 1040 ------- 0 0.0 4.0 19 30
+ 0.57952 0 2 tcp 1040 ------- 0 0.0 4.0 20 31
- 0.57952 0 2 tcp 1040 ------- 0 0.0 4.0 19 30
r 0.57984 2 3 tcp 1040 ------- 0 0.0 4.0 12 19
+ 0.57984 3 4 tcp 1040 ------- 0 0.0 4.0 12 19
- 0.57984 3 4 tcp 1040 ------- 0 0.0 4.0 12 19
r 0.5812 0 2 tcp 1040 ------- 0 0.0 4.0 17 27
+ 0.5812 2 3 tcp 1040 ------- 0 0.0 4.0 17 27
r 0.58152 3 4 tcp 1040 ------- 0 0.0 4.0 11 18
+ 0.58152 4 3 ack 40 ------- 0 4.0 0.0 11 32
- 0.58152 4 3 ack 40 ------- 0 4.0 0.0 11 32
r 0.58584 3 2 ack 40 ------- 0 4.0 0.0 10 29
+ 0.58584 2 0 ack 40 ------- 0 4.0 0.0 10 29
- 0.58584 2 0 ack 40 ------- 0 4.0 0.0 10 29
- 0.58648 2 3 tcp 1040 ------- 0 0.0 4.0 14 21
- 0.58784 0 2 tcp 1040 ------- 0 0.0 4.0 20 31
r 0.58952 0 2 tcp 1040 ------- 0 0.0 4.0 18 28
+ 0.58952 2 3 tcp 1040 ------- 0 0.0 4.0 18 28
r 0.59184 4 3 ack 40 ------- 0 4.0 0.0 11 32
+ 0.59184 3 2 ack 40 ------- 0 4.0 0.0 11 32
- 0.59184 3 2 ack 40 ------- 0 4.0 0.0 11 32
r 0.59616 2 0 ack 40 ------- 0 4.0 0.0 10 29
+ 0.59616 0 2 tcp 1040 ------- 0 0.0 4.0 21 33
+ 0.59616 0 2 tcp 1040 ------- 0 0.0 4.0 22 34
- 0.59616 0 2 tcp 1040 ------- 0 0.0 4.0 21 33
r 0.59648 2 3 tcp 1040 ------- 0 0.0 4.0 13 20
+ 0.59648 3 4 tcp 1040 ------- 0 0.0 4.0 13 20
- 0.59648 3 4 tcp 1040 ------- 0 0.0 4.0 13 20
r 0.59784 0 2 tcp 1040 ------- 0 0.0 4.0 19 30
+ 0.59784 2 3 tcp 1040 ------- 0 0.0 4.0 19 30
r 0.59816 3 4 tcp 1040 ------- 0 0.0 4.0 12 19
+ 0.59816 4 3 ack 40 ------- 0 4.0 0.0 12 35
- 0.59816 4 3 ack 40 ------- 0 4.0 0.0 12 35
r 0.60248 3 2 ack 40 ------- 0 4.0 0.0 11 32
+ 0.60248 2 0 ack 40 ------- 0 4.0 0.0 11 32
- 0.60248 2 0 ack 40 ------- 0 4.0 0.0 11 32
- 0.60312 2 3 tcp 1040 ------- 0 0.0 4.0 15 24
- 0.60448 0 2 tcp 1040 ------- 0 0.0 4.0 22 34
r 0.60616 0 2 tcp 1040 ------- 0 0.0 4.0 20 31
+ 0.60616 2 3 tcp 1040 ------- 0 0.0 4.0 20 31
r 0.60848 4 3 ack 40 ------- 0 4.0 0.0 12 35
+ 0.60848 3 2 ack 40 ------- 0 4.0 0.0 12 35
- 0.60848 3 2 ack 40 ------- 0 4.0 0.0 12 35
r 0.6128 2 0 ack 40 ------- 0 4.0 0.0 11 32
+ 0.6128 0 2 tcp 1040 ------- 0 0.0 4.0 23 36
+ 0.6128 0 2 tcp 1040 ------- 0 0.0 4.0 24 37
- 0.6128 0 2 tcp 1040 ------- 0 0.0 4.0 23 36
r 0.61312 2 3 tcp 1040 ------- 0 0.0 4.0 14 21
+ 0.61312 3 4 tcp 1040 ------- 0 0.0 4.0 14 21
- 0.61312 3 4 tcp 1040 ------- 0 0.0 4.0 14 21
r 0.61448 0 2 tcp 1040 ------- 0 0.0 4.0 21 33
+ 0.61448 2 3 tcp 1040 ------- 0 0.0 4.0 21 33
r 0.6148 3 4 tcp 1040 ------- 0 0.0 4.0 13 20
+ 0.6148 4 3 ack 40 ------- 0 4.0 0.0 13 38
- 0.6148 4 3 ack 40 ------- 0 4.0 0.0 13 38
r 0.61912 3 2 ack 40 ------- 0 4.0 0.0 12 35
+ 0.61912 2 0 ack 40 ------- 0 4.0 0.0 12 35
- 0.61912 2 0 ack 40 ------- 0 4.0 0.0 12 35
- 0.61976 2 3 tcp 1040 ------- 0 0.0 4.0 16 25
- 0.62112 0 2 tcp 1040 ------- 0 0.0 4.0 24 37
r 0.6228 0 2 tcp 1040 ------- 0 0.0 4.0 22 34
+ 0.6228 2 3 tcp 1040 ------- 0 0.0 4.0 22 34
r 0.62512 4 3 ack 40 ------- 0 4.0 0.0 13 38
+ 0.62512 3 2 ack 40 ------- 0 4.0 0.0 13 38
- 0.62512 3 2 ack 40 ------- 0 4.0 0.0 13 38
r 0.62944 2 0 ack 40 ------- 0 4.0 0.0 12 35
+ 0.62944 0 2 tcp 1040 ------- 0 0.0 4.0 25 39
+ 0.62944 0 2 tcp 1040 ------- 0 0.0 4.0 26 40
- 0.62944 0 2 tcp 1040 ------- 0 0.0 4.0 25 39
r 0.62976 2 3 tcp 1040 ------- 0 0.0 4.0 15 24
+ 0.62976 3 4 tcp 1040 ------- 0 0.0 4.0 15 24
- 0.62976 3 4 tcp 1040 ------- 0 0.0 4.0 15 24
r 0.63112 0 2 tcp 1040 ------- 0 0.0 4.0 23 36
+ 0.63112 2 3 tcp 1040 ------- 0 0.0 4.0 23 36
r 0.63144 3 4 tcp 1040 ------- 0 0.0 4.0 14 21
+ 0.63144 4 3 ack 40 ------- 0 4.0 0.0 14 41
- 0.63144 4 3 ack 40 ------- 0 4.0 0.0 14 41
r 0.63576 3 2 ack 40 ------- 0 4.0 0.0 13 38
+ 0.63576 2 0 ack 40 ------- 0 4.0 0.0 13 38
- 0.63576 2 0 ack 40 ------- 0 4.0 0.0 13 38
- 0.6364 2 3 tcp 1040 ------- 0 0.0 4.0 17 27
- 0.63776 0 2 tcp 1040 ------- 0 0.0 4.0 26 40
r 0.63944 0 2 tcp 1040 ------- 0 0.0 4.0 24 37
+ 0.63944 2 3 tcp 1040 ------- 0 0.0 4.0 24 37
r 0.64176 4 3 ack 40 ------- 0 4.0 0.0 14 41
+ 0.64176 3 2 ack 40 ------- 0 4.0 0.0 14 41
- 0.64176 3 2 ack 40 ------- 0 4.0 0.0 14 41
r 0.64608 2 0 ack 40 ------- 0 4.0 0.0 13 38
+ 0.64608 0 2 tcp 1040 ------- 0 0.0 4.0 27 42
+ 0.64608 0 2 tcp 1040 ------- 0 0.0 4.0 28 43
- 0.64608 0 2 tcp 1040 ------- 0 0.0 4.0 27 42
r 0.6464 2 3 tcp 1040 ------- 0 0.0 4.0 16 25
+ 0.6464 3 4 tcp 1040 ------- 0 0.0 4.0 16 25
- 0.6464 3 4 tcp 1040 ------- 0 0.0 4.0 16 25
r 0.64776 0 2 tcp 1040 ------- 0 0.0 4.0 25 39
+ 0.64776 2 3 tcp 1040 ------- 0 0.0 4.0 25 39
r 0.64808 3 4 tcp 1040 ------- 0 0.0 4.0 15 24
+ 0.64808 4 3 ack 40 ------- 0 4.0 0.0 15 44
- 0.64808 4 3 ack 40 ------- 0 4.0 0.0 15 44
r 0.6524 3 2 ack 40 ------- 0 4.0 0.0 14 41
+ 0.6524 2 0 ack 40 ------- 0 4.0 0.0 14 41
- 0.6524 2 0 ack 40 ------- 0 4.0 0.0 14 41
- 0.65304 2 3 tcp 1040 ------- 0 0.0 4.0 18 28
- 0.6544 0 2 tcp 1040 ------- 0 0.0 4.0 28 43
r 0.65608 0 2 tcp 1040 ------- 0 0.0 4.0 26 40
+ 0.65608 2 3 tcp 1040 ------- 0 0.0 4.0 26 40
r 0.6584 4 3 ack 40 ------- 0 4.0 0.0 15 44
+ 0.6584 3 2 ack 40 ------- 0 4.0 0.0 15 44
- 0.6584 3 2 ack 40 ------- 0 4.0 0.0 15 44
r 0.66272 2 0 ack 40 ------- 0 4.0 0.0 14 41
+ 0.66272 0 2 tcp 1040 ------- 0 0.0 4.0 29 45
+ 0.66272 0 2 tcp 1040 ------- 0 0.0 4.0 30 46
- 0.66272 0 2 tcp 1040 ------- 0 0.0 4.0 29 45
r 0.66304 2 3 tcp 1040 ------- 0 0.0 4.0 17 27
+ 0.66304 3 4 tcp 1040 ------- 0 0.0 4.0 17 27
- 0.66304 3 4 tcp 1040 ------- 0 0.0 4.0 17 27
r 0.6644 0 2 tcp 1040 ------- 0 0.0 4.0 27 42
+ 0.6644 2 3 tcp 1040 ------- 0 0.0 4.0 27 42
r 0.66472 3 4 tcp 1040 ------- 0 0.0 4.0 16 25
+ 0.66472 4 3 ack 40 ------- 0 4.0 0.0 16 47
- 0.66472 4 3 ack 40 ------- 0 4.0 0.0 16 47
r 0.66904 3 2 ack 40 ------- 0 4.0 0.0 15 44
+ 0.66904 2 0 ack 40 ------- 0 4.0 0.0 15 44
- 0.66904 2 0 ack 40 ------- 0 4.0 0.0 15 44
- 0.66968 2 3 tcp 1040 ------- 0 0.0 4.0 19 30
- 0.67104 0 2 tcp 1040 ------- 0 0.0 4.0 30 46
r 0.67272 0 2 tcp 1040 ------- 0 0.0 4.0 28 43
+ 0.67272 2 3 tcp 1040 ------- 0 0.0 4.0 28 43
r 0.67504 4 3 ack 40 ------- 0 4.0 0.0 16 47
+ 0.67504 3 2 ack 40 ------- 0 4.0 0.0 16 47
- 0.67504 3 2 ack 40 ------- 0 4.0 0.0 16 47
r 0.67936 2 0 ack 40 ------- 0 4.0 0.0 15 44
+ 0.67936 0 2 tcp 1040 ------- 0 0.0 4.0 31 48
+ 0.67936 0 2 tcp 1040 ------- 0 0.0 4.0 32 49
- 0.67936 0 2 tcp 1040 ------- 0 0.0 4.0 31 48
r 0.67968 2 3 tcp 1040 ------- 0 0.0 4.0 18 28
+ 0.67968 3 4 tcp 1040 ------- 0 0.0 4.0 18 28
- 0.67968 3 4 tcp 1040 ------- 0 0.0 4.0 18 28
r 0.68104 0 2 tcp 1040 ------- 0 0.0 4.0 29 45
+ 0.68104 2 3 tcp 1040 ------- 0 0.0 4.0 29 45
r 0.68136 3 4 tcp 1040 ------- 0 0.0 4.0 17 27
+ 0.68136 4 3 ack 40 ------- 0 4.0 0.0 17 50
- 0.68136 4 3 ack 40 ------- 0 4.0 0.0 17 50
r 0.68568 3 2 ack 40 ------- 0 4.0 0.0 16 47
+ 0.68568 2 0 ack 40 ------- 0 4.0 0.0 16 47
- 0.68568 2 0 ack 40 ------- 0 4.0 0.0 16 47
- 0.68632 2 3 tcp 1040 ------- 0 0.0 4.0 20 31
- 0.68768 0 2 tcp 1040 ------- 0 0.0 4.0 32 49
r 0.68936 0 2 tcp 1040 ------- 0 0.0 4.0 30 46
+ 0.68936 2 3 tcp 1040 ------- 0 0.0 4.0 30 46
r 0.69168 4 3 ack 40 ------- 0 4.0 0.0 17 50
+ 0.69168 3 2 ack 40 ------- 0 4.0 0.0 17 50
- 0.69168 3 2 ack 40 ------- 0 4.0 0.0 17 50
r 0.696 2 0 ack 40 ------- 0 4.0 0.0 16 47
+ 0.696 0 2 tcp 1040 ------- 0 0.0 4.0 33 51
+ 0.696 0 2 tcp 1040 ------- 0 0.0 4.0 34 52
- 0.696 0 2 tcp 1040 ------- 0 0.0 4.0 33 51
r 0.69632 2 3 tcp 1040 ------- 0 0.0 4.0 19 30
+ 0.69632 3 4 tcp 1040 ------- 0 0.0 4.0 19 30
- 0.69632 3 4 tcp 1040 ------- 0 0.0 4.0 19 30
r 0.69768 0 2 tcp 1040 ------- 0 0.0 4.0 31 48
+ 0.69768 2 3 tcp 1040 ------- 0 0.0 4.0 31 48
r 0.698 3 4 tcp 1040 ------- 0 0.0 4.0 18 28
+ 0.698 4 3 ack 40 ------- 0 4.0 0.0 18 53
- 0.698 4 3 ack 40 ------- 0 4.0 0.0 18 53
r 0.70232 3 2 ack 40 ------- 0 4.0 0.0 17 50
+ 0.70232 2 0 ack 40 ------- 0 4.0 0.0 17 50
- 0.70232 2 0 ack 40 ------- 0 4.0 0.0 17 50
- 0.70296 2 3 tcp 1040 ------- 0 0.0 4.0 21 33
- 0.70432 0 2 tcp 1040 ------- 0 0.0 4.0 34 52
r 0.706 0 2 tcp 1040 ------- 0 0.0 4.0 32 49
+ 0.706 2 3 tcp 1040 ------- 0 0.0 4.0 32 49
r 0.70832 4 3 ack 40 ------- 0 4.0 0.0 18 53
+ 0.70832 3 2 ack 40 ------- 0 4.0 0.0 18 53
- 0.70832 3 2 ack 40 ------- 0 4.0 0.0 18 53
r 0.71264 2 0 ack 40 ------- 0 4.0 0.0 17 50
+ 0.71264 0 2 tcp 1040 ------- 0 0.0 4.0 35 54
+ 0.71264 0 2 tcp 1040 ------- 0 0.0 4.0 36 55
- 0.71264 0 2 tcp 1040 ------- 0 0.0 4.0 35 54
r 0.71296 2 3 tcp 1040 ------- 0 0.0 4.0 20 31
+ 0.71296 3 4 tcp 1040 ------- 0 0.0 4.0 20 31
- 0.71296 3 4 tcp 1040 ------- 0 0.0 4.0 20 31
r 0.71432 0 2 tcp 1040 ------- 0 0.0 4.0 33 51
+ 0.71432 2 3 tcp 1040 ------- 0 0.0 4.0 33 51
r 0.71464 3 4 tcp 1040 ------- 0 0.0 4.0 19 30
+ 0.71464 4 3 ack 40 ------- 0 4.0 0.0 19 56
- 0.71464 4 3 ack 40 ------- 0 4.0 0.0 19 56
r 0.71896 3 2 ack 40 ------- 0 4.0 0.0 18 53
+ 0.71896 2 0 ack 40 ------- 0 4.0 0.0 18 53
- 0.71896 2 0 ack 40 ------- 0 4.0 0.0 18 53
- 0.7196 2 3 tcp 1040 ------- 0 0.0 4.0 22 34
- 0.72096 0 2 tcp 1040 ------- 0 0.0 4.0 36 55
r 0.72264 0 2 tcp 1040 ------- 0 0.0 4.0 34 52
+ 0.72264 2 3 tcp 1040 ------- 0 0.0 4.0 34 52
r 0.72496 4 3 ack 40 ------- 0 4.0 0.0 19 56
+ 0.72496 3 2 ack 40 ------- 0 4.0 0.0 19 56
- 0.72496 3 2 ack 40 ------- 0 4.0 0.0 19 56
r 0.72928 2 0 ack 40 ------- 0 4.0 0.0 18 53
+ 0.72928 0 2 tcp 1040 ------- 0 0.0 4.0 37 57
+ 0.72928 0 2 tcp 1040 ------- 0 0.0 4.0 38 58
- 0.72928 0 2 tcp 1040 ------- 0 0.0 4.0 37 57
r 0.7296 2 3 tcp 1040 ------- 0 0.0 4.0 21 33
+ 0.7296 3 4 tcp 1040 ------- 0 0.0 4.0 21 33
- 0.7296 3 4 tcp 1040 ------- 0 0.0 4.0 21 33
r 0.73096 0 2 tcp 1040 ------- 0 0.0 4.0 35 54
+ 0.73096 2 3 tcp 1040 ------- 0 0.0 4.0 35 54
r 0.73128 3 4 tcp 1040 ------- 0 0.0 4.0 20 31
+ 0.73128 4 3 ack 40 ------- 0 4.0 0.0 20 59
- 0.73128 4 3 ack 40 ------- 0 4.0 0.0 20 59
r 0.7356 3 2 ack 40 ------- 0 4.0 0.0 19 56
+ 0.7356 2 0 ack 40 ------- 0 4.0 0.0 19 56
- 0.7356 2 0 ack 40 ------- 0 4.0 0.0 19 56
- 0.73624 2 3 tcp 1040 ------- 0 0.0 4.0 23 36
- 0.7376 0 2 tcp 1040 ------- 0 0.0 4.0 38 58
r 0.73928 0 2 tcp 1040 ------- 0 0.0 4.0 36 55
+ 0.73928 2 3 tcp 1040 ------- 0 0.0 4.0 36 55
r 0.7416 4 3 ack 40 ------- 0 4.0 0.0 20 59
+ 0.7416 3 2 ack 40 ------- 0 4.0 0.0 20 59
- 0.7416 3 2 ack 40 ------- 0 4.0 0.0 20 59
r 0.74592 2 0 ack 40 ------- 0 4.0 0.0 19 56
+ 0.74592 0 2 tcp 1040 ------- 0 0.0 4.0 39 60
- 0.74592 0 2 tcp 1040 ------- 0 0.0 4.0 39 60
r 0.74624 2 3 tcp 1040 ------- 0 0.0 4.0 22 34
+ 0.74624 3 4 tcp 1040 ------- 0 0.0 4.0 22 34
- 0.74624 3 4 tcp 1040 ------- 0 0.0 4.0 22 34
r 0.7476 0 2 tcp 1040 ------- 0 0.0 4.0 37 57
+ 0.7476 2 3 tcp 1040 ------- 0 0.0 4.0 37 57
r 0.74792 3 4 tcp 1040 ------- 0 0.0 4.0 21 33
+ 0.74792 4 3 ack 40 ------- 0 4.0 0.0 21 61
- 0.74792 4 3 ack 40 ------- 0 4.0 0.0 21 61
r 0.75224 3 2 ack 40 ------- 0 4.0 0.0 20 59
+ 0.75224 2 0 ack 40 ------- 0 4.0 0.0 20 59
- 0.75224 2 0 ack 40 ------- 0 4.0 0.0 20 59
- 0.75288 2 3 tcp 1040 ------- 0 0.0 4.0 24 37
r 0.75592 0 2 tcp 1040 ------- 0 0.0 4.0 38 58
+ 0.75592 2 3 tcp 1040 ------- 0 0.0 4.0 38 58
r 0.75824 4 3 ack 40 ------- 0 4.0 0.0 21 61
+ 0.75824 3 2 ack 40 ------- 0 4.0 0.0 21 61
- 0.75824 3 2 ack 40 ------- 0 4.0 0.0 21 61
r 0.76256 2 0 ack 40 ------- 0 4.0 0.0 20 59
+ 0.76256 0 2 tcp 1040 ------- 0 0.0 4.0 40 62
- 0.76256 0 2 tcp 1040 ------- 0 0.0 4.0 40 62
r 0.76288 2 3 tcp 1040 ------- 0 0.0 4.0 23 36
+ 0.76288 3 4 tcp 1040 ------- 0 0.0 4.0 23 36
- 0.76288 3 4 tcp 1040 ------- 0 0.0 4.0 23 36
r 0.76424 0 2 tcp 1040 ------- 0 0.0 4.0 39 60
+ 0.76424 2 3 tcp 1040 ------- 0 0.0 4.0 39 60
d 0.76424 2 3 tcp 1040 ------- 0 0.0 4.0 39 60
r 0.76456 3 4 tcp 1040 ------- 0 0.0 4.0 22 34
+ 0.76456 4 3 ack 40 ------- 0 4.0 0.0 22 63
- 0.76456 4 3 ack 40 ------- 0 4.0 0.0 22 63
r 0.76888 3 2 ack 40 ------- 0 4.0 0.0 21 61
+ 0.76888 2 0 ack 40 ------- 0 4.0 0.0 21 61
- 0.76888 2 0 ack 40 ------- 0 4.0 0.0 21 61
- 0.76952 2 3 tcp 1040 ------- 0 0.0 4.0 25 39
r 0.77488 4 3 ack 40 ------- 0 4.0 0.0 22 63
+ 0.77488 3 2 ack 40 ------- 0 4.0 0.0 22 63
- 0.77488 3 2 ack 40 ------- 0 4.0 0.0 22 63
r 0.7792 2 0 ack 40 ------- 0 4.0 0.0 21 61
+ 0.7792 0 2 tcp 1040 ------- 0 0.0 4.0 41 64
- 0.7792 0 2 tcp 1040 ------- 0 0.0 4.0 41 64
r 0.77952 2 3 tcp 1040 ------- 0 0.0 4.0 24 37
+ 0.77952 3 4 tcp 1040 ------- 0 0.0 4.0 24 37
- 0.77952 3 4 tcp 1040 ------- 0 0.0 4.0 24 37
r 0.78088 0 2 tcp 1040 ------- 0 0.0 4.0 40 62
+ 0.78088 2 3 tcp 1040 ------- 0 0.0 4.0 40 62
r 0.7812 3 4 tcp 1040 ------- 0 0.0 4.0 23 36
+ 0.7812 4 3 ack 40 ------- 0 4.0 0.0 23 65
- 0.7812 4 3 ack 40 ------- 0 4.0 0.0 23 65
r 0.78552 3 2 ack 40 ------- 0 4.0 0.0 22 63
+ 0.78552 2 0 ack 40 ------- 0 4.0 0.0 22 63
- 0.78552 2 0 ack 40 ------- 0 4.0 0.0 22 63
- 0.78616 2 3 tcp 1040 ------- 0 0.0 4.0 26 40
r 0.79152 4 3 ack 40 ------- 0 4.0 0.0 23 65
+ 0.79152 3 2 ack 40 ------- 0 4.0 0.0 23 65
- 0.79152 3 2 ack 40 ------- 0 4.0 0.0 23 65
r 0.79584 2 0 ack 40 ------- 0 4.0 0.0 22 63
+ 0.79584 0 2 tcp 1040 ------- 0 0.0 4.0 42 66
- 0.79584 0 2 tcp 1040 ------- 0 0.0 4.0 42 66
r 0.79616 2 3 tcp 1040 ------- 0 0.0 4.0 25 39
+ 0.79616 3 4 tcp 1040 ------- 0 0.0 4.0 25 39
- 0.79616 3 4 tcp 1040 ------- 0 0.0 4.0 25 39
r 0.79752 0 2 tcp 1040 ------- 0 0.0 4.0 41 64
+ 0.79752 2 3 tcp 1040 ------- 0 0.0 4.0 41 64
r 0.79784 3 4 tcp 1040 ------- 0 0.0 4.0 24 37
+ 0.79784 4 3 ack 40 ------- 0 4.0 0.0 24 67
- 0.79784 4 3 ack 40 ------- 0 4.0 0.0 24 67
r 0.80216 3 2 ack 40 ------- 0 4.0 0.0 23 65
+ 0.80216 2 0 ack 40 ------- 0 4.0 0.0 23 65
- 0.80216 2 0 ack 40 ------- 0 4.0 0.0 23 65
- 0.8028 2 3 tcp 1040 ------- 0 0.0 4.0 27 42
r 0.80816 4 3 ack 40 ------- 0 4.0 0.0 24 67
+ 0.80816 3 2 ack 40 ------- 0 4.0 0.0 24 67
- 0.80816 3 2 ack 40 ------- 0 4.0 0.0 24 67
r 0.81248 2 0 ack 40 ------- 0 4.0 0.0 23 65
+ 0.81248 0 2 tcp 1040 ------- 0 0.0 4.0 43 68
- 0.81248 0 2 tcp 1040 ------- 0 0.0 4.0 43 68
r 0.8128 2 3 tcp 1040 ------- 0 0.0 4.0 26 40
+ 0.8128 3 4 tcp 1040 ------- 0 0.0 4.0 26 40
- 0.8128 3 4 tcp 1040 ------- 0 0.0 4.0 26 40
r 0.81416 0 2 tcp 1040 ------- 0 0.0 4.0 42 66
+ 0.81416 2 3 tcp 1040 ------- 0 0.0 4.0 42 66
r 0.81448 3 4 tcp 1040 ------- 0 0.0 4.0 25 39
+ 0.81448 4 3 ack 40 ------- 0 4.0 0.0 25 69
- 0.81448 4 3 ack 40 ------- 0 4.0 0.0 25 69
r 0.8188 3 2 ack 40 ------- 0 4.0 0.0 24 67
+ 0.8188 2 0 ack 40 ------- 0 4.0 0.0 24 67
- 0.8188 2 0 ack 40 ------- 0 4.0 0.0 24 67
- 0.81944 2 3 tcp 1040 ------- 0 0.0 4.0 28 43
r 0.8248 4 3 ack 40 ------- 0 4.0 0.0 25 69
+ 0.8248 3 2 ack 40 ------- 0 4.0 0.0 25 69
- 0.8248 3 2 ack 40 ------- 0 4.0 0.0 25 69
r 0.82912 2 0 ack 40 ------- 0 4.0 0.0 24 67
+ 0.82912 0 2 tcp 1040 ------- 0 0.0 4.0 44 70
- 0.82912 0 2 tcp 1040 ------- 0 0.0 4.0 44 70
r 0.82944 2 3 tcp 1040 ------- 0 0.0 4.0 27 42
+ 0.82944 3 4 tcp 1040 ------- 0 0.0 4.0 27 42
- 0.82944 3 4 tcp 1040 ------- 0 0.0 4.0 27 42
r 0.8308 0 2 tcp 1040 ------- 0 0.0 4.0 43 68
+ 0.8308 2 3 tcp 1040 ------- 0 0.0 4.0 43 68
r 0.83112 3 4 tcp 1040 ------- 0 0.0 4.0 26 40
+ 0.83112 4 3 ack 40 ------- 0 4.0 0.0 26 71
- 0.83112 4 3 ack 40 ------- 0 4.0 0.0 26 71
r 0.83544 3 2 ack 40 ------- 0 4.0 0.0 25 69
+ 0.83544 2 0 ack 40 ------- 0 4.0 0.0 25 69
- 0.83544 2 0 ack 40 ------- 0 4.0 0.0 25 69
- 0.83608 2 3 tcp 1040 ------- 0 0.0 4.0 29 45
r 0.84144 4 3 ack 40 ------- 0 4.0 0.0 26 71
+ 0.84144 3 2 ack 40 ------- 0 4.0 0.0 26 71
- 0.84144 3 2 ack 40 ------- 0 4.0 0.0 26 71
r 0.84576 2 0 ack 40 ------- 0 4.0 0.0 25 69
+ 0.84576 0 2 tcp 1040 ------- 0 0.0 4.0 45 72
- 0.84576 0 2 tcp 1040 ------- 0 0.0 4.0 45 72
r 0.84608 2 3 tcp 1040 ------- 0 0.0 4.0 28 43
+ 0.84608 3 4 tcp 1040 ------- 0 0.0 4.0 28 43
- 0.84608 3 4 tcp 1040 ------- 0 0.0 4.0 28 43
r 0.84744 0 2 tcp 1040 ------- 0 0.0 4.0 44 70
+ 0.84744 2 3 tcp 1040 ------- 0 0.0 4.0 44 70
r 0.84776 3 4 tcp 1040 ------- 0 0.0 4.0 27 42
+ 0.84776 4 3 ack 40 ------- 0 4.0 0.0 27 73
- 0.84776 4 3 ack 40 ------- 0 4.0 0.0 27 73
r 0.85208 3 2 ack 40 ------- 0 4.0 0.0 26 71
+ 0.85208 2 0 ack 40 ------- 0 4.0 0.0 26 71
- 0.85208 2 0 ack 40 ------- 0 4.0 0.0 26 71
- 0.85272 2 3 tcp 1040 ------- 0 0.0 4.0 30 46
r 0.85808 4 3 ack 40 ------- 0 4.0 0.0 27 73
+ 0.85808 3 2 ack 40 ------- 0 4.0 0.0 27 73
- 0.85808 3 2 ack 40 ------- 0 4.0 0.0 27 73
r 0.8624 2 0 ack 40 ------- 0 4.0 0.0 26 71
+ 0.8624 0 2 tcp 1040 ------- 0 0.0 4.0 46 74
- 0.8624 0 2 tcp 1040 ------- 0 0.0 4.0 46 74
r 0.86272 2 3 tcp 1040 ------- 0 0.0 4.0 29 45
+ 0.86272 3 4 tcp 1040 ------- 0 0.0 4.0 29 45
- 0.86272 3 4 tcp 1040 ------- 0 0.0 4.0 29 45
r 0.86408 0 2 tcp 1040 ------- 0 0.0 4.0 45 72
+ 0.86408 2 3 tcp 1040 ------- 0 0.0 4.0 45 72
r 0.8644 3 4 tcp 1040 ------- 0 0.0 4.0 28 43
+ 0.8644 4 3 ack 40 ------- 0 4.0 0.0 28 75
- 0.8644 4 3 ack 40 ------- 0 4.0 0.0 28 75
r 0.86872 3 2 ack 40 ------- 0 4.0 0.0 27 73
+ 0.86872 2 0 ack 40 ------- 0 4.0 0.0 27 73
- 0.86872 2 0 ack 40 ------- 0 4.0 0.0 27 73
- 0.86936 2 3 tcp 1040 ------- 0 0.0 4.0 31 48
r 0.87472 4 3 ack 40 ------- 0 4.0 0.0 28 75
+ 0.87472 3 2 ack 40 ------- 0 4.0 0.0 28 75
- 0.87472 3 2 ack 40 ------- 0 4.0 0.0 28 75
r 0.87904 2 0 ack 40 ------- 0 4.0 0.0 27 73
+ 0.87904 0 2 tcp 1040 ------- 0 0.0 4.0 47 76
- 0.87904 0 2 tcp 1040 ------- 0 0.0 4.0 47 76
r 0.87936 2 3 tcp 1040 ------- 0 0.0 4.0 30 46
+ 0.87936 3 4 tcp 1040 ------- 0 0.0 4.0 30 46
- 0.87936 3 4 tcp 1040 ------- 0 0.0 4.0 30 46
r 0.88072 0 2 tcp 1040 ------- 0 0.0 4.0 46 74
+ 0.88072 2 3 tcp 1040 ------- 0 0.0 4.0 46 74
r 0.88104 3 4 tcp 1040 ------- 0 0.0 4.0 29 45
+ 0.88104 4 3 ack 40 ------- 0 4.0 0.0 29 77
- 0.88104 4 3 ack 40 ------- 0 4.0 0.0 29 77
r 0.88536 3 2 ack 40 ------- 0 4.0 0.0 28 75
+ 0.88536 2 0 ack 40 ------- 0 4.0 0.0 28 75
- 0.88536 2 0 ack 40 ------- 0 4.0 0.0 28 75
- 0.886 2 3 tcp 1040 ------- 0 0.0 4.0 32 49
r 0.89136 4 3 ack 40 ------- 0 4.0 0.0 29 77
+ 0.89136 3 2 ack 40 ------- 0 4.0 0.0 29 77
- 0.89136 3 2 ack 40 ------- 0 4.0 0.0 29 77
r 0.89568 2 0 ack 40 ------- 0 4.0 0.0 28 75
+ 0.89568 0 2 tcp 1040 ------- 0 0.0 4.0 48 78
- 0.89568 0 2 tcp 1040 ------- 0 0.0 4.0 48 78
r 0.896 2 3 tcp 1040 ------- 0 0.0 4.0 31 48
+ 0.896 3 4 tcp 1040 ------- 0 0.0 4.0 31 48
- 0.896 3 4 tcp 1040 ------- 0 0.0 4.0 31 48
r 0.89736 0 2 tcp 1040 ------- 0 0.0 4.0 47 76
+ 0.89736 2 3 tcp 1040 ------- 0 0.0 4.0 47 76
r 0.89768 3 4 tcp 1040 ------- 0 0.0 4.0 30 46
+ 0.89768 4 3 ack 40 ------- 0 4.0 0.0 30 79
- 0.89768 4 3 ack 40 ------- 0 4.0 0.0 30 79
r 0.902 3 2 ack 40 ------- 0 4.0 0.0 29 77
+ 0.902 2 0 ack 40 ------- 0 4.0 0.0 29 77
- 0.902 2 0 ack 40 ------- 0 4.0 0.0 29 77
- 0.90264 2 3 tcp 1040 ------- 0 0.0 4.0 33 51
r 0.908 4 3 ack 40 ------- 0 4.0 0.0 30 79
+ 0.908 3 2 ack 40 ------- 0 4.0 0.0 30 79
- 0.908 3 2 ack 40 ------- 0 4.0 0.0 30 79
r 0.91232 2 0 ack 40 ------- 0 4.0 0.0 29 77
+ 0.91232 0 2 tcp 1040 ------- 0 0.0 4.0 49 80
- 0.91232 0 2 tcp 1040 ------- 0 0.0 4.0 49 80
r 0.91264 2 3 tcp 1040 ------- 0 0.0 4.0 32 49
+ 0.91264 3 4 tcp 1040 ------- 0 0.0 4.0 32 49
- 0.91264 3 4 tcp 1040 ------- 0 0.0 4.0 32 49
r 0.914 0 2 tcp 1040 ------- 0 0.0 4.0 48 78
+ 0.914 2 3 tcp 1040 ------- 0 0.0 4.0 48 78
r 0.91432 3 4 tcp 1040 ------- 0 0.0 4.0 31 48
+ 0.91432 4 3 ack 40 ------- 0 4.0 0.0 31 81
- 0.91432 4 3 ack 40 ------- 0 4.0 0.0 31 81
r 0.91864 3 2 ack 40 ------- 0 4.0 0.0 30 79
+ 0.91864 2 0 ack 40 ------- 0 4.0 0.0 30 79
- 0.91864 2 0 ack 40 ------- 0 4.0 0.0 30 79
- 0.91928 2 3 tcp 1040 ------- 0 0.0 4.0 34 52
r 0.92464 4 3 ack 40 ------- 0 4.0 0.0 31 81
+ 0.92464 3 2 ack 40 ------- 0 4.0 0.0 31 81
- 0.92464 3 2 ack 40 ------- 0 4.0 0.0 31 81
r 0.92896 2 0 ack 40 ------- 0 4.0 0.0 30 79
+ 0.92896 0 2 tcp 1040 ------- 0 0.0 4.0 50 82
- 0.92896 0 2 tcp 1040 ------- 0 0.0 4.0 50 82
r 0.92928 2 3 tcp 1040 ------- 0 0.0 4.0 33 51
+ 0.92928 3 4 tcp 1040 ------- 0 0.0 4.0 33 51
- 0.92928 3 4 tcp 1040 ------- 0 0.0 4.0 33 51
r 0.93064 0 2 tcp 1040 ------- 0 0.0 4.0 49 80
+ 0.93064 2 3 tcp 1040 ------- 0 0.0 4.0 49 80
r 0.93096 3 4 tcp 1040 ------- 0 0.0 4.0 32 49
+ 0.93096 4 3 ack 40 ------- 0 4.0 0.0 32 83
- 0.93096 4 3 ack 40 ------- 0 4.0 0.0 32 83
r 0.93528 3 2 ack 40 ------- 0 4.0 0.0 31 81