n -t 0 -s 0 -S DLABEL -l "FTP Source" -L ""
n -t 0 -s 1 -S DLABEL -l "CBR Source" -L ""
l -t 0 -s 2 -d 3 -S DLABEL -l "Error Link" -L ""
l -t 0 -s 3 -d 2 -S DLABEL -l "Error Link" -L ""
V -t * -v 1.0a5 -a 0
A -t * -n 1 -p 0 -o 0x7fffffff -c 30 -a 1
A -t * -h 1 -m 1073741823 -s 0
n -t * -a 4 -s 4 -S UP -v circle -c black -i black
n -t * -a 0 -s 0 -S UP -v circle -c black -i black
n -t * -a 5 -s 5 -S UP -v circle -c black -i black
n -t * -a 1 -s 1 -S UP -v circle -c black -i black
n -t * -a 2 -s 2 -S UP -v circle -c black -i black
n -t * -a 3 -s 3 -S UP -v circle -c black -i black
l -t * -s 0 -d 2 -S UP -r 10000000 -D 0.0050000000000000001 -c black -o right-down
l -t * -s 1 -d 2 -S UP -r 20000000 -D 0.0050000000000000001 -c black -o right-up
l -t * -s 2 -d 3 -S UP -r 20000000 -D 0.0050000000000000001 -c black -o right
l -t * -s 3 -d 4 -S UP -r 10000000 -D 0.0050000000000000001 -c black -o right-up
l -t * -s 3 -d 5 -S UP -r 20000000 -D 0.0050000000000000001 -c black -o right-down
+ -t 0.2 -s 0 -d 2 -p tcp -e 40 -c 0 -i 0 -a 0 -x {0.0 4.0 0 ------- null}
- -t 0.2 -s 0 -d 2 -p tcp -e 40 -c 0 -i 0 -a 0 -x {0.0 4.0 0 ------- null}
h -t 0.2 -s 0 -d 2 -p tcp -e 40 -c 0 -i 0 -a 0 -x {0.0 4.0 -1 ------- null}
+ -t 0.2 -s 1 -d 2 -p cbr -e 210 -c 0 -i 1 -a 0 -x {1.0 5.0 0 ------- null}
- -t 0.2 -s 1 -d 2 -p cbr -e 210 -c 0 -i 1 -a 0 -x {1.0 5.0 0 ------- null}
h -t 0.2 -s 1 -d 2 -p cbr -e 210 -c 0 -i 1 -a 0 -x {1.0 5.0 -1 ------- null}
+ -t 0.20375 -s 1 -d 2 -p cbr -e 210 -c 0 -i 2 -a 0 -x {1.0 5.0 1 ------- null}
- -t 0.20375 -s 1 -d 2 -p cbr -e 210 -c 0 -i 2 -a 0 -x {1.0 5.0 1 ------- null}
h -t 0.20375 -s 1 -d 2 -p cbr -e 210 -c 0 -i 2 -a 0 -x {1.0 5.0 -1 ------- null}
r -t 0.205032 -s 0 -d 2 -p tcp -e 40 -c 0 -i 0 -a 0 -x {0.0 4.0 0 ------- null}
d -t 0.205032 -s 2 -d 3 -p tcp -e 40 -c 0 -i 0 -a 0 -x {0.0 4.0 0 ------- null}
r -t 0.205084 -s 1 -d 2 -p cbr -e 210 -c 0 -i 1 -a 0 -x {1.0 5.0 0 ------- null}
d -t 0.205084 -s 2 -d 3 -p cbr -e 210 -c 0 -i 1 -a 0 -x {1.0 5.0 0 ------- null}
+ -t 0.2075 -s 1 -d 2 -p cbr -e 210 -c 0 -i 3 -a 0 -x {1.0 5.0 2 ------- null}
- -t 0.2075 -s 1 -d 2 -p cbr -e 210 -c 0 -i 3 -a 0 -x {1.0 5.0 2 ------- null}
h -t 0.2075 -s 1 -d 2 -p cbr -e 210 -c 0 -i 3 -a 0 -x {1.0 5.0 -1 ------- null}
r -t 0.208834 -s 1 -d 2 -p cbr -e 210 -c 0 -i 2 -a 0 -x {1.0 5.0 1 ------- null}
+ -t 0.208834 -s 2 -d 3 -p cbr -e 210 -c 0 -i 2 -a 0 -x {1.0 5.0 1 ------- null}
- -t 0.208834 -s 2 -d 3 -p cbr -e 210 -c 0 -i 2 -a 0 -x {1.0 5.0 1 ------- null}
h -t 0.208834 -s 2 -d 3 -p cbr -e 210 -c 0 -i 2 -a 0 -x {1.0 5.0 -1 ------- null}
+ -t 0.21125 -s 1 -d 2 -p cbr -e 210 -c 0 -i 4 -a 0 -x {1.0 5.0 3 ------- null}
- -t 0.21125 -s 1 -d 2 -p cbr -e 210 -c 0 -i 4 -a 0 -x {1.0 5.0 3 ------- null}
h -t 0.21125 -s 1 -d 2 -p cbr -e 210 -c 0 -i 4 -a 0 -x {1.0 5.0 -1 ------- null}
r -t 0.212584 -s 1 -d 2 -p cbr -e 210 -c 0 -i 3 -a 0 -x {1.0 5.0 2 ------- null}
+ -t 0.212584 -s 2 -d 3 -p cbr -e 210 -c 0 -i 3 -a 0 -x {1.0 5.0 2 ------- null}
- -t 0.212584 -s 2 -d 3 -p cbr -e 210 -c 0 -i 3 -a 0 -x {1.0 5.0 2 ------- null}
h -t 0.212584 -s 2 -d 3 -p cbr -e 210 -c 0 -i 3 -a 0 -x {1.0 5.0 -1 ------- null}
r -t 0.213918 -s 2 -d 3 -p cbr -e 210 -c 0 -i 2 -a 0 -x {1.0 5.0 1 ------- null}
+ -t 0.213918 -s 3 -d 5 -p cbr -e 210 -c 0 -i 2 -a 0 -x {1.0 5.0 1 ------- null}
- -t 0.213918 -s 3 -d 5 -p cbr -e 210 -c 0 -i 2 -a 0 -x {1.0 5.0 1 ------- null}
h -t 0.213918 -s 3 -d 5 -p cbr -e 210 -c 0 -i 2 -a 0 -x {1.0 5.0 -1 ------- null}
+ -t 0.215 -s 1 -d 2 -p cbr -e 210 -c 0 -i 5 -a 0 -x {1.0 5.0 4 ------- null}
- -t 0.215 -s 1 -d 2 -p cbr -e 210 -c 0 -i 5 -a 0 -x {1.0 5.0 4 ------- null}
h -t 0.215 -s 1 -d 2 -p cbr -e 210 -c 0 -i 5 -a 0 -x {1.0 5.0 -1 ------- null}
r -t 0.216334 -s 1 -d 2 -p cbr -e 210 -c 0 -i 4 -a 0 -x {1.0 5.0 3 ------- null}
+ -t 0.216334 -s 2 -d 3 -p cbr -e 210 -c 0 -i 4 -a 0 -x {1.0 5.0 3 ------- null}
- -t 0.216334 -s 2 -d 3 -p cbr -e 210 -c 0 -i 4 -a 0 -x {1.0 5.0 3 ------- null}
h -t 0.216334 -s 2 -d 3 -p cbr -e 210 -c 0 -i 4 -a 0 -x {1.0 5.0 -1 ------- null}
r -t 0.217668 -s 2 -d 3 -p cbr -e 210 -c 0 -i 3 -a 0 -x {1.0 5.0 2 ------- null}
+ -t 0.217668 -s 3 -d 5 -p cbr -e 210 -c 0 -i 3 -a 0 -x {1.0 5.0 2 ------- null}
- -t 0.217668 -s 3 -d 5 -p cbr -e 210 -c 0 -i 3 -a 0 -x {1.0 5.0 2 ------- null}
h -t 0.217668 -s 3 -d 5 -p cbr -e 210 -c 0 -i 3 -a 0 -x {1.0 5.0 -1 ------- null}
+ -t 0.21875 -s 1 -d 2 -p cbr -e 210 -c 0 -i 6 -a 0 -x {1.0 5.0 5 ------- null}
- -t 0.21875 -s 1 -d 2 -p cbr -e 210 -c 0 -i 6 -a 0 -x {1.0 5.0 5 ------- null}
h -t 0.21875 -s 1 -d 2 -p cbr -e 210 -c 0 -i 6 -a 0 -x {1.0 5.0 -1 ------- null}
r -t 0.219002 -s 3 -d 5 -p cbr -e 210 -c 0 -i 2 -a 0 -x {1.0 5.0 1 ------- null}
r -t 0.220084 -s 1 -d 2 -p cbr -e 210 -c 0 -i 5 -a 0 -x {1.0 5.0 4 ------- null}
+ -t 0.220084 -s 2 -d 3 -p cbr -e 210 -c 0 -i 5 -a 0 -x {1.0 5.0 4 ------- null}
- -t 0.220084 -s 2 -d 3 -p cbr -e 210 -c 0 -i 5 -a 0 -x {1.0 5.0 4 ------- null}
h -t 0.220084 -s 2 -d 3 -p cbr -e 210 -c 0 -i 5 -a 0 -x {1.0 5.0 -1 ------- null}
r -t 0.221418 -s 2 -d 3 -p cbr -e 210 -c 0 -i 4 -a 0 -x {1.0 5.0 3 ------- null}
+ -t 0.221418 -s 3 -d 5 -p cbr -e 210 -c 0 -i 4 -a 0 -x {1.0 5.0 3 ------- null}
- -t 0.221418 -s 3 -d 5 -p cbr -e 210 -c 0 -i 4 -a 0 -x {1.0 5.0 3 ------- null}
h -t 0.221418 -s 3 -d 5 -p cbr -e 210 -c 0 -i 4 -a 0 -x {1.0 5.0 -1 ------- null}
+ -t 0.2225 -s 1 -d 2 -p cbr -e 210 -c 0 -i 7 -a 0 -x {1.0 5.0 6 ------- null}
- -t 0.2225 -s 1 -d 2 -p cbr -e 210 -c 0 -i 7 -a 0 -x {1.0 5.0 6 ------- null}
h -t 0.2225 -s 1 -d 2 -p cbr -e 210 -c 0 -i 7 -a 0 -x {1.0 5.0 -1 ------- null}
r -t 0.222752 -s 3 -d 5 -p cbr -e 210 -c 0 -i 3 -a 0 -x {1.0 5.0 2 ------- null}
r -t 0.223834 -s 1 -d 2 -p cbr -e 210 -c 0 -i 6 -a 0 -x {1.0 5.0 5 ------- null}
+ -t 0.223834 -s 2 -d 3 -p cbr -e 210 -c 0 -i 6 -a 0 -x {1.0 5.0 5 ------- null}
- -t 0.223834 -s 2 -d 3 -p cbr -e 210 -c 0 -i 6 -a 0 -x {1.0 5.0 5 ------- null}
h -t 0.223834 -s 2 -d 3 -p cbr -e 210 -c 0 -i 6 -a 0 -x {1.0 5.0 -1 ------- null}
r -t 0.225168 -s 2 -d 3 -p cbr -e 210 -c 0 -i 5 -a 0 -x {1.0 5.0 4 ------- null}
+ -t 0.225168 -s 3 -d 5 -p cbr -e 210 -c 0 -i 5 -a 0 -x {1.0 5.0 4 ------- null}
- -t 0.225168 -s 3 -d 5 -p cbr -e 210 -c 0 -i 5 -a 0 -x {1.0 5.0 4 ------- null}
h -t 0.225168 -s 3 -d 5 -p cbr -e 210 -c 0 -i 5 -a 0 -x {1.0 5.0 -1 ------- null}
+ -t 0.22625 -s 1 -d 2 -p cbr -e 210 -c 0 -i 8 -a 0 -x {1.0 5.0 7 ------- null}
- -t 0.22625 -s 1 -d 2 -p cbr -e 210 -c 0 -i 8 -a 0 -x {1.0 5.0 7 ------- null}
h -t 0.22625 -s 1 -d 2 -p cbr -e 210 -c 0 -i 8 -a 0 -x {1.0 5.0 -1 ------- null}
r -t 0.226502 -s 3 -d 5 -p cbr -e 210 -c 0 -i 4 -a 0 -x {1.0 5.0 3 ------- null}
r -t 0.227584 -s 1 -d 2 -p cbr -e 210 -c 0 -i 7 -a 0 -x {1.0 5.0 6 ------- null}
+ -t 0.227584 -s 2 -d 3 -p cbr -e 210 -c 0 -i 7 -a 0 -x {1.0 5.0 6 ------- null}
- -t 0.227584 -s 2 -d 3 -p cbr -e 210 -c 0 -i 7 -a 0 -x {1.0 5.0 6 ------- null}
h -t 0.227584 -s 2 -d 3 -p cbr -e 210 -c 0 -i 7 -a 0 -x {1.0 5.0 -1 ------- null}
r -t 0.228918 -s 2 -d 3 -p cbr -e 210 -c 0 -i 6 -a 0 -x {1.0 5.0 5 ------- null}
+ -t 0.228918 -s 3 -d 5 -p cbr -e 210 -c 0 -i 6 -a 0 -x {1.0 5.0 5 ------- null}
- -t 0.228918 -s 3 -d 5 -p cbr -e 210 -c 0 -i 6 -a 0 -x {1.0 5.0 5 ------- null}
h -t 0.228918 -s 3 -d 5 -p cbr -e 210 -c 0 -i 6 -a 0 -x {1.0 5.0 -1 ------- null}
+ -t 0.23 -s 1 -d 2 -p cbr -e 210 -c 0 -i 9 -a 0 -x {1.0 5.0 8 ------- null}
- -t 0.23 -s 1 -d 2 -p cbr -e 210 -c 0 -i 9 -a 0 -x {1.0 5.0 8 ------- null}
h -t 0.23 -s 1 -d 2 -p cbr -e 210 -c 0 -i 9 -a 0 -x {1.0 5.0 -1 ------- null}
r -t 0.230252 -s 3 -d 5 -p cbr -e 210 -c 0 -i 5 -a 0 -x {1.0 5.0 4 ------- null}
r -t 0.231334 -s 1 -d 2 -p cbr -e 210 -c 0 -i 8 -a 0 -x {1.0 5.0 7 ------- null}
+ -t 0.231334 -s 2 -d 3 -p cbr -e 210 -c 0 -i 8 -a 0 -x {1.0 5.0 7 ------- null}
- -t 0.231334 -s 2 -d 3 -p cbr -e 210 -c 0 -i 8 -a 0 -x {1.0 5.0 7 ------- null}
h -t 0.231334 -s 2 -d 3 -p cbr -e 210 -c 0 -i 8 -a 0 -x {1.0 5.0 -1 ------- null}
r -t 0.232668 -s 2 -d 3 -p cbr -e 210 -c 0 -i 7 -a 0 -x {1.0 5.0 6 ------- null}
+ -t 0.232668 -s 3 -d 5 -p cbr -e 210 -c 0 -i 7 -a 0 -x {1.0 5.0 6 ------- null}
- -t 0.232668 -s 3 -d 5 -p cbr -e 210 -c 0 -i 7 -a 0 -x {1.0 5.0 6 ------- null}
h -t 0.232668 -s 3 -d 5 -p cbr -e 210 -c 0 -i 7 -a 0 -x {1.0 5.0 -1 ------- null}
+ -t 0.23375 -s 1 -d 2 -p cbr -e 210 -c 0 -i 10 -a 0 -x {1.0 5.0 9 ------- null}
- -t 0.23375 -s 1 -d 2 -p cbr -e 210 -c 0 -i 10 -a 0 -x {1.0 5.0 9 ------- null}
h -t 0.23375 -s 1 -d 2 -p cbr -e 210 -c 0 -i 10 -a 0 -x {1.0 5.0 -1 ------- null}
r -t 0.234002 -s 3 -d 5 -p cbr -e 210 -c 0 -i 6 -a 0 -x {1.0 5.0 5 ------- null}
r -t 0.235084 -s 1 -d 2 -p cbr -e 210 -c 0 -i 9 -a 0 -x {1.0 5.0 8 ------- null}
+ -t 0.235084 -s 2 -d 3 -p cbr -e 210 -c 0 -i 9 -a 0 -x {1.0 5.0 8 ------- null}
- -t 0.235084 -s 2 -d 3 -p cbr -e 210 -c 0 -i 9 -a 0 -x {1.0 5.0 8 ------- null}
h -t 0.235084 -s 2 -d 3 -p cbr -e 210 -c 0 -i 9 -a 0 -x {1.0 5.0 -1 ------- null}
r -t 0.236418 -s 2 -d 3 -p cbr -e 210 -c 0 -i 8 -a 0 -x {1.0 5.0 7 ------- null}
+ -t 0.236418 -s 3 -d 5 -p cbr -e 210 -c 0 -i 8 -a 0 -x {1.0 5.0 7 ------- null}
- -t 0.236418 -s 3 -d 5 -p cbr -e 210 -c 0 -i 8 -a 0 -x {1.0 5.0 7 ------- null}
h -t 0.236418 -s 3 -d 5 -p cbr -e 210 -c 0 -i 8 -a 0 -x {1.0 5.0 -1 ------- null}
+ -t 0.2375 -s 1 -d 2 -p cbr -e 210 -c 0 -i 11 -a 0 -x {1.0 5.0 10 ------- null}
- -t 0.2375 -s 1 -d 2 -p cbr -e 210 -c 0 -i 11 -a 0 -x {1.0 5.0 10 ------- null}
h -t 0.2375 -s 1 -d 2 -p cbr -e 210 -c 0 -i 11 -a 0 -x {1.0 5.0 -1 ------- null}
r -t 0.237752 -s 3 -d 5 -p cbr -e 210 -c 0 -i 7 -a 0 -x {1.0 5.0 6 ------- null}
r -t 0.238834 -s 1 -d 2 -p cbr -e 210 -c 0 -i 10 -a 0 -x {1.0 5.0 9 ------- null}
d -t 0.238834 -s 2 -d 3 -p cbr -e 210 -c 0 -i 10 -a 0 -x {1.0 5.0 9 ------- null}
r -t 0.240168 -s 2 -d 3 -p cbr -e 210 -c 0 -i 9 -a 0 -x {1.0 5.0 8 ------- null}
+ -t 0.240168 -s 3 -d 5 -p cbr -e 210 -c 0 -i 9 -a 0 -x {1.0 5.0 8 ------- null}
- -t 0.240168 -s 3 -d 5 -p cbr -e 210 -c 0 -i 9 -a 0 -x {1.0 5.0 8 ------- null}
h -t 0.240168 -s 3 -d 5 -p cbr -e 210 -c 0 -i 9 -a 0 -x {1.0 5.0 -1 ------- null}
+ -t 0.24125 -s 1 -d 2 -p cbr -e 210 -c 0 -i 12 -a 0 -x {1.0 5.0 11 ------- null}
- -t 0.24125 -s 1 -d 2 -p cbr -e 210 -c 0 -i 12 -a 0 -x {1.0 5.0 11 ------- null}
h -t 0.24125 -s 1 -d 2 -p cbr -e 210 -c 0 -i 12 -a 0 -x {1.0 5.0 -1 ------- null}
r -t 0.241502 -s 3 -d 5 -p cbr -e 210 -c 0 -i 8 -a 0 -x {1.0 5.0 7 ------- null}
r -t 0.242584 -s 1 -d 2 -p cbr -e 210 -c 0 -i 11 -a 0 -x {1.0 5.0 10 ------- null}
d -t 0.242584 -s 2 -d 3 -p cbr -e 210 -c 0 -i 11 -a 0 -x {1.0 5.0 10 ------- null}
+ -t 0.245 -s 1 -d 2 -p cbr -e 210 -c 0 -i 13 -a 0 -x {1.0 5.0 12 ------- null}
- -t 0.245 -s 1 -d 2 -p cbr -e 210 -c 0 -i 13 -a 0 -x {1.0 5.0 12 ------- null}
h -t 0.245 -s 1 -d 2 -p cbr -e 210 -c 0 -i 13 -a 0 -x {1.0 5.0 -1 ------- null}
r -t 0.245252 -s 3 -d 5 -p cbr -e 210 -c 0 -i 9 -a 0 -x {1.0 5.0 8 ------- null}
r -t 0.246334 -s 1 -d 2 -p cbr -e 210 -c 0 -i 12 -a 0 -x {1.0 5.0 11 ------- null}
+ -t 0.246334 -s 2 -d 3 -p cbr -e 210 -c 0 -i 12 -a 0 -x {1.0 5.0 11 ------- null}
- -t 0.246334 -s 2 -d 3 -p cbr -e 210 -c 0 -i 12 -a 0 -x {1.0 5.0 11 ------- null}
h -t 0.246334 -s 2 -d 3 -p cbr -e 210 -c 0 -i 12 -a 0 -x {1.0 5.0 -1 ------- null}
+ -t 0.24875 -s 1 -d 2 -p cbr -e 210 -c 0 -i 14 -a 0 -x {1.0 5.0 13 ------- null}
- -t 0.24875 -s 1 -d 2 -p cbr -e 210 -c 0 -i 14 -a 0 -x {1.0 5.0 13 ------- null}
h -t 0.24875 -s 1 -d 2 -p cbr -e 210 -c 0 -i 14 -a 0 -x {1.0 5.0 -1 ------- null}
r -t 0.250084 -s 1 -d 2 -p cbr -e 210 -c 0 -i 13 -a 0 -x {1.0 5.0 12 ------- null}
d -t 0.250084 -s 2 -d 3 -p cbr -e 210 -c 0 -i 13 -a 0 -x {1.0 5.0 12 ------- null}
r -t 0.251418 -s 2 -d 3 -p cbr -e 210 -c 0 -i 12 -a 0 -x {1.0 5.0 11 ------- null}
+ -t 0.251418 -s 3 -d 5 -p cbr -e 210 -c 0 -i 12 -a 0 -x {1.0 5.0 11 ------- null}
- -t 0.251418 -s 3 -d 5 -p cbr -e 210 -c 0 -i 12 -a 0 -x {1.0 5.0 11 ------- null}
h -t 0.251418 -s 3 -d 5 -p cbr -e 210 -c 0 -i 12 -a 0 -x {1.0 5.0 -1 ------- null}
+ -t 0.2525 -s 1 -d 2 -p cbr -e 210 -c 0 -i 15 -a 0 -x {1.0 5.0 14 ------- null}
- -t 0.2525 -s 1 -d 2 -p cbr -e 210 -c 0 -i 15 -a 0 -x {1.0 5.0 14 ------- null}
h -t 0.2525 -s 1 -d 2 -p cbr -e 210 -c 0 -i 15 -a 0 -x {1.0 5.0 -1 ------- null}
r -t 0.253834 -s 1 -d 2 -p cbr -e 210 -c 0 -i 14 -a 0 -x {1.0 5.0 13 ------- null}
+ -t 0.253834 -s 2 -d 3 -p cbr -e 210 -c 0 -i 14 -a 0 -x {1.0 5.0 13 ------- null}
- -t 0.253834 -s 2 -d 3 -p cbr -e 210 -c 0 -i 14 -a 0 -x {1.0 5.0 13 ------- null}
h -t 0.253834 -s 2 -d 3 -p cbr -e 210 -c 0 -i 14 -a 0 -x {1.0 5.0 -1 ------- null}
+ -t 0.25625 -s 1 -d 2 -p cbr -e 210 -c 0 -i 16 -a 0 -x {1.0 5.0 15 ------- null}
- -t 0.25625 -s 1 -d 2 -p cbr -e 210 -c 0 -i 16 -a 0 -x {1.0 5.0 15 ------- null}
h -t 0.25625 -s 1 -d 2 -p cbr -e 210 -c 0 -i 16 -a 0 -x {1.0 5.0 -1 ------- null}
r -t 0.256502 -s 3 -d 5 -p cbr -e 210 -c 0 -i 12 -a 0 -x {1.0 5.0 11 ------- null}
r -t 0.257584 -s 1 -d 2 -p cbr -e 210 -c 0 -i 15 -a 0 -x {1.0 5.0 14 ------- null}
+ -t 0.257584 -s 2 -d 3 -p cbr -e 210 -c 0 -i 15 -a 0 -x {1.0 5.0 14 ------- null}
- -t 0.257584 -s 2 -d 3 -p cbr -e 210 -c 0 -i 15 -a 0 -x {1.0 5.0 14 ------- null}
h -t 0.257584 -s 2 -d 3 -p cbr -e 210 -c 0 -i 15 -a 0 -x {1.0 5.0 -1 ------- null}
r -t 0.258918 -s 2 -d 3 -p cbr -e 210 -c 0 -i 14 -a 0 -x {1.0 5.0 13 ------- null}
+ -t 0.258918 -s 3 -d 5 -p cbr -e 210 -c 0 -i 14 -a 0 -x {1.0 5.0 13 ------- null}
- -t 0.258918 -s 3 -d 5 -p cbr -e 210 -c 0 -i 14 -a 0 -x {1.0 5.0 13 ------- null}
h -t 0.258918 -s 3 -d 5 -p cbr -e 210 -c 0 -i 14 -a 0 -x {1.0 5.0 -1 ------- null}
+ -t 0.26 -s 1 -d 2 -p cbr -e 210 -c 0 -i 17 -a 0 -x {1.0 5.0 16 ------- null}
- -t 0.26 -s 1 -d 2 -p cbr -e 210 -c 0 -i 17 -a 0 -x {1.0 5.0 16 ------- null}
h -t 0.26 -s 1 -d 2 -p cbr -e 210 -c 0 -i 17 -a 0 -x {1.0 5.0 -1 ------- null}
r -t 0.261334 -s 1 -d 2 -p cbr -e 210 -c 0 -i 16 -a 0 -x {1.0 5.0 15 ------- null}
d -t 0.261334 -s 2 -d 3 -p cbr -e 210 -c 0 -i 16 -a 0 -x {1.0 5.0 15 ------- null}
r -t 0.262668 -s 2 -d 3 -p cbr -e 210 -c 0 -i 15 -a 0 -x {1.0 5.0 14 ------- null}
+ -t 0.262668 -s 3 -d 5 -p cbr -e 210 -c 0 -i 15 -a 0 -x {1.0 5.0 14 ------- null}
- -t 0.262668 -s 3 -d 5 -p cbr -e 210 -c 0 -i 15 -a 0 -x {1.0 5.0 14 ------- null}
h -t 0.262668 -s 3 -d 5 -p cbr -e 210 -c 0 -i 15 -a 0 -x {1.0 5.0 -1 ------- null}
+ -t 0.26375 -s 1 -d 2 -p cbr -e 210 -c 0 -i 18 -a 0 -x {1.0 5.0 17 ------- null}
- -t 0.26375 -s 1 -d 2 -p cbr -e 210 -c 0 -i 18 -a 0 -x {1.0 5.0 17 ------- null}
h -t 0.26375 -s 1 -d 2 -p cbr -e 210 -c 0 -i 18 -a 0 -x {1.0 5.0 -1 ------- null}
r -t 0.264002 -s 3 -d 5 -p cbr -e 210 -c 0 -i 14 -a 0 -x {1.0 5.0 13 ------- null}
r -t 0.265084 -s 1 -d 2 -p cbr -e 210 -c 0 -i 17 -a 0 -x {1.0 5.0 16 ------- null}
d -t 0.265084 -s 2 -d 3 -p cbr -e 210 -c 0 -i 17 -a 0 -x {1.0 5.0 16 ------- null}
+ -t 0.2675 -s 1 -d 2 -p cbr -e 210 -c 0 -i 19 -a 0 -x {1.0 5.0 18 ------- null}
- -t 0.2675 -s 1 -d 2 -p cbr -e 210 -c 0 -i 19 -a 0 -x {1.0 5.0 18 ------- null}
h -t 0.2675 -s 1 -d 2 -p cbr -e 210 -c 0 -i 19 -a 0 -x {1.0 5.0 -1 ------- null}
r -t 0.267752 -s 3 -d 5 -p cbr -e 210 -c 0 -i 15 -a 0 -x {1.0 5.0 14 ------- null}
r -t 0.268834 -s 1 -d 2 -p cbr -e 210 -c 0 -i 18 -a 0 -x {1.0 5.0 17 ------- null}
+ -t 0.268834 -s 2 -d 3 -p cbr -e 210 -c 0 -i 18 -a 0 -x {1.0 5.0 17 ------- null}
- -t 0.268834 -s 2 -d 3 -p cbr -e 210 -c 0 -i 18 -a 0 -x {1.0 5.0 17 ------- null}
h -t 0.268834 -s 2 -d 3 -p cbr -e 210 -c 0 -i 18 -a 0 -x {1.0 5.0 -1 ------- null}
+ -t 0.27125 -s 1 -d 2 -p cbr -e 210 -c 0 -i 20 -a 0 -x {1.0 5.0 19 ------- null}
- -t 0.27125 -s 1 -d 2 -p cbr -e 210 -c 0 -i 20 -a 0 -x {1.0 5.0 19 ------- null}
h -t 0.27125 -s 1 -d 2 -p cbr -e 210 -c 0 -i 20 -a 0 -x {1.0 5.0 -1 ------- null}
r -t 0.272584 -s 1 -d 2 -p cbr -e 210 -c 0 -i 19 -a 0 -x {1.0 5.0 18 ------- null}
+ -t 0.272584 -s 2 -d 3 -p cbr -e 210 -c 0 -i 19 -a 0 -x {1.0 5.0 18 ------- null}
- -t 0.272584 -s 2 -d 3 -p cbr -e 210 -c 0 -i 19 -a 0 -x {1.0 5.0 18 ------- null}
h -t 0.272584 -s 2 -d 3 -p cbr -e 210 -c 0 -i 19 -a 0 -x {1.0 5.0 -1 ------- null}
r -t 0.273918 -s 2 -d 3 -p cbr -e 210 -c 0 -i 18 -a 0 -x {1.0 5.0 17 ------- null}
+ -t 0.273918 -s 3 -d 5 -p cbr -e 210 -c 0 -i 18 -a 0 -x {1.0 5.0 17 ------- null}
- -t 0.273918 -s 3 -d 5 -p cbr -e 210 -c 0 -i 18 -a 0 -x {1.0 5.0 17 ------- null}
h -t 0.273918 -s 3 -d 5 -p cbr -e 210 -c 0 -i 18 -a 0 -x {1.0 5.0 -1 ------- null}
+ -t 0.275 -s 1 -d 2 -p cbr -e 210 -c 0 -i 21 -a 0 -x {1.0 5.0 20 ------- null}
- -t 0.275 -s 1 -d 2 -p cbr -e 210 -c 0 -i 21 -a 0 -x {1.0 5.0 20 ------- null}
h -t 0.275 -s 1 -d 2 -p cbr -e 210 -c 0 -i 21 -a 0 -x {1.0 5.0 -1 ------- null}
r -t 0.276334 -s 1 -d 2 -p cbr -e 210 -c 0 -i 20 -a 0 -x {1.0 5.0 19 ------- null}
+ -t 0.276334 -s 2 -d 3 -p cbr -e 210 -c 0 -i 20 -a 0 -x {1.0 5.0 19 ------- null}
- -t 0.276334 -s 2 -d 3 -p cbr -e 210 -c 0 -i 20 -a 0 -x {1.0 5.0 19 ------- null}
h -t 0.276334 -s 2 -d 3 -p cbr -e 210 -c 0 -i 20 -a 0 -x {1.0 5.0 -1 ------- null}
r -t 0.277668 -s 2 -d 3 -p cbr -e 210 -c 0 -i 19 -a 0 -x {1.0 5.0 18 ------- null}
+ -t 0.277668 -s 3 -d 5 -p cbr -e 210 -c 0 -i 19 -a 0 -x {1.0 5.0 18 ------- null}
- -t 0.277668 -s 3 -d 5 -p cbr -e 210 -c 0 -i 19 -a 0 -x {1.0 5.0 18 ------- null}
h -t 0.277668 -s 3 -d 5 -p cbr -e 210 -c 0 -i 19 -a 0 -x {1.0 5.0 -1 ------- null}
+ -t 0.27875 -s 1 -d 2 -p cbr -e 210 -c 0 -i 22 -a 0 -x {1.0 5.0 21 ------- null}
- -t 0.27875 -s 1 -d 2 -p cbr -e 210 -c 0 -i 22 -a 0 -x {1.0 5.0 21 ------- null}
h -t 0.27875 -s 1 -d 2 -p cbr -e 210 -c 0 -i 22 -a 0 -x {1.0 5.0 -1 ------- null}
r -t 0.279002 -s 3 -d 5 -p cbr -e 210 -c 0 -i 18 -a 0 -x {1.0 5.0 17 ------- null}
r -t 0.280084 -s 1 -d 2 -p cbr -e 210 -c 0 -i 21 -a 0 -x {1.0 5.0 20 ------- null}
+ -t 0.280084 -s 2 -d 3 -p cbr -e 210 -c 0 -i 21 -a 0 -x {1.0 5.0 20 ------- null}
- -t 0.280084 -s 2 -d 3 -p cbr -e 210 -c 0 -i 21 -a 0 -x {1.0 5.0 20 ------- null}
h -t 0.280084 -s 2 -d 3 -p cbr -e 210 -c 0 -i 21 -a 0 -x {1.0 5.0 -1 ------- null}
r -t 0.281418 -s 2 -d 3 -p cbr -e 210 -c 0 -i 20 -a 0 -x {1.0 5.0 19 ------- null}
+ -t 0.281418 -s 3 -d 5 -p cbr -e 210 -c 0 -i 20 -a 0 -x {1.0 5.0 19 ------- null}
- -t 0.281418 -s 3 -d 5 -p cbr -e 210 -c 0 -i 20 -a 0 -x {1.0 5.0 19 ------- null}
h -t 0.281418 -s 3 -d 5 -p cbr -e 210 -c 0 -i 20 -a 0 -x {1.0 5.0 -1 ------- null}
+ -t 0.2825 -s 1 -d 2 -p cbr -e 210 -c 0 -i 23 -a 0 -x {1.0 5.0 22 ------- null}
- -t 0.2825 -s 1 -d 2 -p cbr -e 210 -c 0 -i 23 -a 0 -x {1.0 5.0 22 ------- null}
h -t 0.2825 -s 1 -d 2 -p cbr -e 210 -c 0 -i 23 -a 0 -x {1.0 5.0 -1 ------- null}
r -t 0.282752 -s 3 -d 5 -p cbr -e 210 -c 0 -i 19 -a 0 -x {1.0 5.0 18 ------- null}
r -t 0.283834 -s 1 -d 2 -p cbr -e 210 -c 0 -i 22 -a 0 -x {1.0 5.0 21 ------- null}
+ -t 0.283834 -s 2 -d 3 -p cbr -e 210 -c 0 -i 22 -a 0 -x {1.0 5.0 21 ------- null}
- -t 0.283834 -s 2 -d 3 -p cbr -e 210 -c 0 -i 22 -a 0 -x {1.0 5.0 21 ------- null}
h -t 0.283834 -s 2 -d 3 -p cbr -e 210 -c 0 -i 22 -a 0 -x {1.0 5.0 -1 ------- null}
r -t 0.285168 -s 2 -d 3 -p cbr -e 210 -c 0 -i 21 -a 0 -x {1.0 5.0 20 ------- null}
+ -t 0.285168 -s 3 -d 5 -p cbr -e 210 -c 0 -i 21 -a 0 -x {1.0 5.0 20 ------- null}
- -t 0.285168 -s 3 -d 5 -p cbr -e 210 -c 0 -i 21 -a 0 -x {1.0 5.0 20 ------- null}
h -t 0.285168 -s 3 -d 5 -p cbr -e 210 -c 0 -i 21 -a 0 -x {1.0 5.0 -1 ------- null}
+ -t 0.28625 -s 1 -d 2 -p cbr -e 210 -c 0 -i 24 -a 0 -x {1.0 5.0 23 ------- null}
- -t 0.28625 -s 1 -d 2 -p cbr -e 210 -c 0 -i 24 -a 0 -x {1.0 5.0 23 ------- null}
h -t 0.28625 -s 1 -d 2 -p cbr -e 210 -c 0 -i 24 -a 0 -x {1.0 5.0 -1 ------- null}
r -t 0.286502 -s 3 -d 5 -p cbr -e 210 -c 0 -i 20 -a 0 -x {1.0 5.0 19 ------- null}
r -t 0.287584 -s 1 -d 2 -p cbr -e 210 -c 0 -i 23 -a 0 -x {1.0 5.0 22 ------- null}
+ -t 0.287584 -s 2 -d 3 -p cbr -e 210 -c 0 -i 23 -a 0 -x {1.0 5.0 22 ------- null}
- -t 0.287584 -s 2 -d 3 -p cbr -e 210 -c 0 -i 23 -a 0 -x {1.0 5.0 22 ------- null}
h -t 0.287584 -s 2 -d 3 -p cbr -e 210 -c 0 -i 23 -a 0 -x {1.0 5.0 -1 ------- null}
r -t 0.288918 -s 2 -d 3 -p cbr -e 210 -c 0 -i 22 -a 0 -x {1.0 5.0 21 ------- null}
+ -t 0.288918 -s 3 -d 5 -p cbr -e 210 -c 0 -i 22 -a 0 -x {1.0 5.0 21 ------- null}
- -t 0.288918 -s 3 -d 5 -p cbr -e 210 -c 0 -i 22 -a 0 -x {1.0 5.0 21 ------- null}
h -t 0.288918 -s 3 -d 5 -p cbr -e 210 -c 0 -i 22 -a 0 -x {1.0 5.0 -1 ------- null}
+ -t 0.29 -s 1 -d 2 -p cbr -e 210 -c 0 -i 25 -a 0 -x {1.0 5.0 24 ------- null}
- -t 0.29 -s 1 -d 2 -p cbr -e 210 -c 0 -i 25 -a 0 -x {1.0 5.0 24 ------- null}
h -t 0.29 -s 1 -d 2 -p cbr -e 210 -c 0 -i 25 -a 0 -x {1.0 5.0 -1 ------- null}
r -t 0.290252 -s 3 -d 5 -p cbr -e 210 -c 0 -i 21 -a 0 -x {1.0 5.0 20 ------- null}
r -t 0.291334 -s 1 -d 2 -p cbr -e 210 -c 0 -i 24 -a 0 -x {1.0 5.0 23 ------- null}
+ -t 0.291334 -s 2 -d 3 -p cbr -e 210 -c 0 -i 24 -a 0 -x {1.0 5.0 23 ------- null}
- -t 0.291334 -s 2 -d 3 -p cbr -e 210 -c 0 -i 24 -a 0 -x {1.0 5.0 23 ------- null}
h -t 0.291334 -s 2 -d 3 -p cbr -e 210 -c 0 -i 24 -a 0 -x {1.0 5.0 -1 ------- null}
r -t 0.292668 -s 2 -d 3 -p cbr -e 210 -c 0 -i 23 -a 0 -x {1.0 5.0 22 ------- null}
+ -t 0.292668 -s 3 -d 5 -p cbr -e 210 -c 0 -i 23 -a 0 -x {1.0 5.0 22 ------- null}
- -t 0.292668 -s 3 -d 5 -p cbr -e 210 -c 0 -i 23 -a 0 -x {1.0 5.0 22 ------- null}
h -t 0.292668 -s 3 -d 5 -p cbr -e 210 -c 0 -i 23 -a 0 -x {1.0 5.0 -1 ------- null}
+ -t 0.29375 -s 1 -d 2 -p cbr -e 210 -c 0 -i 26 -a 0 -x {1.0 5.0 25 ------- null}
- -t 0.29375 -s 1 -d 2 -p cbr -e 210 -c 0 -i 26 -a 0 -x {1.0 5.0 25 ------- null}
h -t 0.29375 -s 1 -d 2 -p cbr -e 210 -c 0 -i 26 -a 0 -x {1.0 5.0 -1 ------- null}
r -t 0.294002 -s 3 -d 5 -p cbr -e 210 -c 0 -i 22 -a 0 -x {1.0 5.0 21 ------- null}
r -t 0.295084 -s 1 -d 2 -p cbr -e 210 -c 0 -i 25 -a 0 -x {1.0 5.0 24 ------- null}
+ -t 0.295084 -s 2 -d 3 -p cbr -e 210 -c 0 -i 25 -a 0 -x {1.0 5.0 24 ------- null}
- -t 0.295084 -s 2 -d 3 -p cbr -e 210 -c 0 -i 25 -a 0 -x {1.0 5.0 24 ------- null}
h -t 0.295084 -s 2 -d 3 -p cbr -e 210 -c 0 -i 25 -a 0 -x {1.0 5.0 -1 ------- null}
r -t 0.296418 -s 2 -d 3 -p cbr -e 210 -c 0 -i 24 -a 0 -x {1.0 5.0 23 ------- null}
+ -t 0.296418 -s 3 -d 5 -p cbr -e 210 -c 0 -i 24 -a 0 -x {1.0 5.0 23 ------- null}
- -t 0.296418 -s 3 -d 5 -p cbr -e 210 -c 0 -i 24 -a 0 -x {1.0 5.0 23 ------- null}
h -t 0.296418 -s 3 -d 5 -p cbr -e 210 -c 0 -i 24 -a 0 -x {1.0 5.0 -1 ------- null}
+ -t 0.2975 -s 1 -d 2 -p cbr -e 210 -c 0 -i 27 -a 0 -x {1.0 5.0 26 ------- null}
- -t 0.2975 -s 1 -d 2 -p cbr -e 210 -c 0 -i 27 -a 0 -x {1.0 5.0 26 ------- null}
h -t 0.2975 -s 1 -d 2 -p cbr -e 210 -c 0 -i 27 -a 0 -x {1.0 5.0 -1 ------- null}
r -t 0.297752 -s 3 -d 5 -p cbr -e 210 -c 0 -i 23 -a 0 -x {1.0 5.0 22 ------- null}
r -t 0.298834 -s 1 -d 2 -p cbr -e 210 -c 0 -i 26 -a 0 -x {1.0 5.0 25 ------- null}
+ -t 0.298834 -s 2 -d 3 -p cbr -e 210 -c 0 -i 26 -a 0 -x {1.0 5.0 25 ------- null}
- -t 0.298834 -s 2 -d 3 -p cbr -e 210 -c 0 -i 26 -a 0 -x {1.0 5.0 25 ------- null}
h -t 0.298834 -s 2 -d 3 -p cbr -e 210 -c 0 -i 26 -a 0 -x {1.0 5.0 -1 ------- null}
r -t 0.300168 -s 2 -d 3 -p cbr -e 210 -c 0 -i 25 -a 0 -x {1.0 5.0 24 ------- null}
+ -t 0.300168 -s 3 -d 5 -p cbr -e 210 -c 0 -i 25 -a 0 -x {1.0 5.0 24 ------- null}
- -t 0.300168 -s 3 -d 5 -p cbr -e 210 -c 0 -i 25 -a 0 -x {1.0 5.0 24 ------- null}
h -t 0.300168 -s 3 -d 5 -p cbr -e 210 -c 0 -i 25 -a 0 -x {1.0 5.0 -1 ------- null}
+ -t 0.30125 -s 1 -d 2 -p cbr -e 210 -c 0 -i 28 -a 0 -x {1.0 5.0 27 ------- null}
- -t 0.30125 -s 1 -d 2 -p cbr -e 210 -c 0 -i 28 -a 0 -x {1.0 5.0 27 ------- null}
h -t 0.30125 -s 1 -d 2 -p cbr -e 210 -c 0 -i 28 -a 0 -x {1.0 5.0 -1 ------- null}
r -t 0.301502 -s 3 -d 5 -p cbr -e 210 -c 0 -i 24 -a 0 -x {1.0 5.0 23 ------- null}
r -t 0.302584 -s 1 -d 2 -p cbr -e 210 -c 0 -i 27 -a 0 -x {1.0 5.0 26 ------- null}
+ -t 0.302584 -s 2 -d 3 -p cbr -e 210 -c 0 -i 27 -a 0 -x {1.0 5.0 26 ------- null}
- -t 0.302584 -s 2 -d 3 -p cbr -e 210 -c 0 -i 27 -a 0 -x {1.0 5.0 26 ------- null}
h -t 0.302584 -s 2 -d 3 -p cbr -e 210 -c 0 -i 27 -a 0 -x {1.0 5.0 -1 ------- null}
r -t 0.303918 -s 2 -d 3 -p cbr -e 210 -c 0 -i 26 -a 0 -x {1.0 5.0 25 ------- null}
+ -t 0.303918 -s 3 -d 5 -p cbr -e 210 -c 0 -i 26 -a 0 -x {1.0 5.0 25 ------- null}
- -t 0.303918 -s 3 -d 5 -p cbr -e 210 -c 0 -i 26 -a 0 -x {1.0 5.0 25 ------- null}
h -t 0.303918 -s 3 -d 5 -p cbr -e 210 -c 0 -i 26 -a 0 -x {1.0 5.0 -1 ------- null}
+ -t 0.305 -s 1 -d 2 -p cbr -e 210 -c 0 -i 29 -a 0 -x {1.0 5.0 28 ------- null}
- -t 0.305 -s 1 -d 2 -p cbr -e 210 -c 0 -i 29 -a 0 -x {1.0 5.0 28 ------- null}
h -t 0.305 -s 1 -d 2 -p cbr -e 210 -c 0 -i 29 -a 0 -x {1.0 5.0 -1 ------- null}
r -t 0.305252 -s 3 -d 5 -p cbr -e 210 -c 0 -i 25 -a 0 -x {1.0 5.0 24 ------- null}
r -t 0.306334 -s 1 -d 2 -p cbr -e 210 -c 0 -i 28 -a 0 -x {1.0 5.0 27 ------- null}
+ -t 0.306334 -s 2 -d 3 -p cbr -e 210 -c 0 -i 28 -a 0 -x {1.0 5.0 27 ------- null}
- -t 0.306334 -s 2 -d 3 -p cbr -e 210 -c 0 -i 28 -a 0 -x {1.0 5.0 27 ------- null}
h -t 0.306334 -s 2 -d 3 -p cbr -e 210 -c 0 -i 28 -a 0 -x {1.0 5.0 -1 ------- null}
r -t 0.307668 -s 2 -d 3 -p cbr -e 210 -c 0 -i 27 -a 0 -x {1.0 5.0 26 ------- null}
+ -t 0.307668 -s 3 -d 5 -p cbr -e 210 -c 0 -i 27 -a 0 -x {1.0 5.0 26 ------- null}
- -t 0.307668 -s 3 -d 5 -p cbr -e 210 -c 0 -i 27 -a 0 -x {1.0 5.0 26 ------- null}
h -t 0.307668 -s 3 -d 5 -p cbr -e 210 -c 0 -i 27 -a 0 -x {1.0 5.0 -1 ------- null}
+ -t 0.30875 -s 1 -d 2 -p cbr -e 210 -c 0 -i 30 -a 0 -x {1.0 5.0 29 ------- null}
- -t 0.30875 -s 1 -d 2 -p cbr -e 210 -c 0 -i 30 -a 0 -x {1.0 5.0 29 ------- null}
h -t 0.30875 -s 1 -d 2 -p cbr -e 210 -c 0 -i 30 -a 0 -x {1.0 5.0 -1 ------- null}
r -t 0.309002 -s 3 -d 5 -p cbr -e 210 -c 0 -i 26 -a 0 -x {1.0 5.0 25 ------- null}
r -t 0.310084 -s 1 -d 2 -p cbr -e 210 -c 0 -i 29 -a 0 -x {1.0 5.0 28 ------- null}
+ -t 0.310084 -s 2 -d 3 -p cbr -e 210 -c 0 -i 29 -a 0 -x {1.0 5.0 28 ------- null}
- -t 0.310084 -s 2 -d 3 -p cbr -e 210 -c 0 -i 29 -a 0 -x {1.0 5.0 28 ------- null}
h -t 0.310084 -s 2 -d 3 -p cbr -e 210 -c 0 -i 29 -a 0 -x {1.0 5.0 -1 ------- null}
r -t 0.311418 -s 2 -d 3 -p cbr -e 210 -c 0 -i 28 -a 0 -x {1.0 5.0 27 ------- null}
+ -t 0.311418 -s 3 -d 5 -p cbr -e 210 -c 0 -i 28 -a 0 -x {1.0 5.0 27 ------- null}
- -t 0.311418 -s 3 -d 5 -p cbr -e 210 -c 0 -i 28 -a 0 -x {1.0 5.0 27 ------- null}
h -t 0.311418 -s 3 -d 5 -p cbr -e 210 -c 0 -i 28 -a 0 -x {1.0 5.0 -1 ------- null}
+ -t 0.3125 -s 1 -d 2 -p cbr -e 210 -c 0 -i 31 -a 0 -x {1.0 5.0 30 ------- null}
- -t 0.3125 -s 1 -d 2 -p cbr -e 210 -c 0 -i 31 -a 0 -x {1.0 5.0 30 ------- null}
h -t 0.3125 -s 1 -d 2 -p cbr -e 210 -c 0 -i 31 -a 0 -x {1.0 5.0 -1 ------- null}
r -t 0.312752 -s 3 -d 5 -p cbr -e 210 -c 0 -i 27 -a 0 -x {1.0 5.0 26 ------- null}
r -t 0.313834 -s 1 -d 2 -p cbr -e 210 -c 0 -i 30 -a 0 -x {1.0 5.0 29 ------- null}
+ -t 0.313834 -s 2 -d 3 -p cbr -e 210 -c 0 -i 30 -a 0 -x {1.0 5.0 29 ------- null}
- -t 0.313834 -s 2 -d 3 -p cbr -e 210 -c 0 -i 30 -a 0 -x {1.0 5.0 29 ------- null}
h -t 0.313834 -s 2 -d 3 -p cbr -e 210 -c 0 -i 30 -a 0 -x {1.0 5.0 -1 ------- null}
r -t 0.315168 -s 2 -d 3 -p cbr -e 210 -c 0 -i 29 -a 0 -x {1.0 5.0 28 ------- null}
+ -t 0.315168 -s 3 -d 5 -p cbr -e 210 -c 0 -i 29 -a 0 -x {1.0 5.0 28 ------- null}
- -t 0.315168 -s 3 -d 5 -p cbr -e 210 -c 0 -i 29 -a 0 -x {1.0 5.0 28 ------- null}
h -t 0.315168 -s 3 -d 5 -p cbr -e 210 -c 0 -i 29 -a 0 -x {1.0 5.0 -1 ------- null}
+ -t 0.31625 -s 1 -d 2 -p cbr -e 210 -c 0 -i 32 -a 0 -x {1.0 5.0 31 ------- null}
- -t 0.31625 -s 1 -d 2 -p cbr -e 210 -c 0 -i 32 -a 0 -x {1.0 5.0 31 ------- null}
h -t 0.31625 -s 1 -d 2 -p cbr -e 210 -c 0 -i 32 -a 0 -x {1.0 5.0 -1 ------- null}
r -t 0.316502 -s 3 -d 5 -p cbr -e 210 -c 0 -i 28 -a 0 -x {1.0 5.0 27 ------- null}
r -t 0.317584 -s 1 -d 2 -p cbr -e 210 -c 0 -i 31 -a 0 -x {1.0 5.0 30 ------- null}
+ -t 0.317584 -s 2 -d 3 -p cbr -e 210 -c 0 -i 31 -a 0 -x {1.0 5.0 30 ------- null}
- -t 0.317584 -s 2 -d 3 -p cbr -e 210 -c 0 -i 31 -a 0 -x {1.0 5.0 30 ------- null}
h -t 0.317584 -s 2 -d 3 -p cbr -e 210 -c 0 -i 31 -a 0 -x {1.0 5.0 -1 ------- null}
r -t 0.318918 -s 2 -d 3 -p cbr -e 210 -c 0 -i 30 -a 0 -x {1.0 5.0 29 ------- null}
+ -t 0.318918 -s 3 -d 5 -p cbr -e 210 -c 0 -i 30 -a 0 -x {1.0 5.0 29 ------- null}
- -t 0.318918 -s 3 -d 5 -p cbr -e 210 -c 0 -i 30 -a 0 -x {1.0 5.0 29 ------- null}
h -t 0.318918 -s 3 -d 5 -p cbr -e 210 -c 0 -i 30 -a 0 -x {1.0 5.0 -1 ------- null}
+ -t 0.32 -s 1 -d 2 -p cbr -e 210 -c 0 -i 33 -a 0 -x {1.0 5.0 32 ------- null}
- -t 0.32 -s 1 -d 2 -p cbr -e 210 -c 0 -i 33 -a 0 -x {1.0 5.0 32 ------- null}
h -t 0.32 -s 1 -d 2 -p cbr -e 210 -c 0 -i 33 -a 0 -x {1.0 5.0 -1 ------- null}
r -t 0.320252 -s 3 -d 5 -p cbr -e 210 -c 0 -i 29 -a 0 -x {1.0 5.0 28 ------- null}
r -t 0.321334 -s 1 -d 2 -p cbr -e 210 -c 0 -i 32 -a 0 -x {1.0 5.0 31 ------- null}
+ -t 0.321334 -s 2 -d 3 -p cbr -e 210 -c 0 -i 32 -a 0 -x {1.0 5.0 31 ------- null}
- -t 0.321334 -s 2 -d 3 -p cbr -e 210 -c 0 -i 32 -a 0 -x {1.0 5.0 31 ------- null}
h -t 0.321334 -s 2 -d 3 -p cbr -e 210 -c 0 -i 32 -a 0 -x {1.0 5.0 -1 ------- null}
r -t 0.322668 -s 2 -d 3 -p cbr -e 210 -c 0 -i 31 -a 0 -x {1.0 5.0 30 ------- null}
+ -t 0.322668 -s 3 -d 5 -p cbr -e 210 -c 0 -i 31 -a 0 -x {1.0 5.0 30 ------- null}
- -t 0.322668 -s 3 -d 5 -p cbr -e 210 -c 0 -i 31 -a 0 -x {1.0 5.0 30 ------- null}
h -t 0.322668 -s 3 -d 5 -p cbr -e 210 -c 0 -i 31 -a 0 -x {1.0 5.0 -1 ------- null}
+ -t 0.32375 -s 1 -d 2 -p cbr -e 210 -c 0 -i 34 -a 0 -x {1.0 5.0 33 ------- null}
- -t 0.32375 -s 1 -d 2 -p cbr -e 210 -c 0 -i 34 -a 0 -x {1.0 5.0 33 ------- null}
h -t 0.32375 -s 1 -d 2 -p cbr -e 210 -c 0 -i 34 -a 0 -x {1.0 5.0 -1 ------- null}
r -t 0.324002 -s 3 -d 5 -p cbr -e 210 -c 0 -i 30 -a 0 -x {1.0 5.0 29 ------- null}
r -t 0.325084 -s 1 -d 2 -p cbr -e 210 -c 0 -i 33 -a 0 -x {1.0 5.0 32 ------- null}
+ -t 0.325084 -s 2 -d 3 -p cbr -e 210 -c 0 -i 33 -a 0 -x {1.0 5.0 32 ------- null}
- -t 0.325084 -s 2 -d 3 -p cbr -e 210 -c 0 -i 33 -a 0 -x {1.0 5.0 32 ------- null}
h -t 0.325084 -s 2 -d 3 -p cbr -e 210 -c 0 -i 33 -a 0 -x {1.0 5.0 -1 ------- null}
r -t 0.326418 -s 2 -d 3 -p cbr -e 210 -c 0 -i 32 -a 0 -x {1.0 5.0 31 ------- null}
+ -t 0.326418 -s 3 -d 5 -p cbr -e 210 -c 0 -i 32 -a 0 -x {1.0 5.0 31 ------- null}
- -t 0.326418 -s 3 -d 5 -p cbr -e 210 -c 0 -i 32 -a 0 -x {1.0 5.0 31 ------- null}