+ 0.2 0 2 tcp 40 ------- 0 0.0 4.0 0 0
- 0.2 0 2 tcp 40 ------- 0 0.0 4.0 0 0
+ 0.2 1 2 cbr 210 ------- 0 1.0 5.0 0 1
- 0.2 1 2 cbr 210 ------- 0 1.0 5.0 0 1
+ 0.20375 1 2 cbr 210 ------- 0 1.0 5.0 1 2
- 0.20375 1 2 cbr 210 ------- 0 1.0 5.0 1 2
r 0.205032 0 2 tcp 40 ------- 0 0.0 4.0 0 0
d 0.205032 2 3 tcp 40 ------- 0 0.0 4.0 0 0
r 0.205084 1 2 cbr 210 ------- 0 1.0 5.0 0 1
d 0.205084 2 3 cbr 210 ------- 0 1.0 5.0 0 1
+ 0.2075 1 2 cbr 210 ------- 0 1.0 5.0 2 3
- 0.2075 1 2 cbr 210 ------- 0 1.0 5.0 2 3
r 0.208834 1 2 cbr 210 ------- 0 1.0 5.0 1 2
+ 0.208834 2 3 cbr 210 ------- 0 1.0 5.0 1 2
- 0.208834 2 3 cbr 210 ------- 0 1.0 5.0 1 2
+ 0.21125 1 2 cbr 210 ------- 0 1.0 5.0 3 4
- 0.21125 1 2 cbr 210 ------- 0 1.0 5.0 3 4
r 0.212584 1 2 cbr 210 ------- 0 1.0 5.0 2 3
+ 0.212584 2 3 cbr 210 ------- 0 1.0 5.0 2 3
- 0.212584 2 3 cbr 210 ------- 0 1.0 5.0 2 3
r 0.213918 2 3 cbr 210 ------- 0 1.0 5.0 1 2
+ 0.213918 3 5 cbr 210 ------- 0 1.0 5.0 1 2
- 0.213918 3 5 cbr 210 ------- 0 1.0 5.0 1 2
+ 0.215 1 2 cbr 210 ------- 0 1.0 5.0 4 5
- 0.215 1 2 cbr 210 ------- 0 1.0 5.0 4 5
r 0.216334 1 2 cbr 210 ------- 0 1.0 5.0 3 4
+ 0.216334 2 3 cbr 210 ------- 0 1.0 5.0 3 4
- 0.216334 2 3 cbr 210 ------- 0 1.0 5.0 3 4
r 0.217668 2 3 cbr 210 ------- 0 1.0 5.0 2 3
+ 0.217668 3 5 cbr 210 ------- 0 1.0 5.0 2 3
- 0.217668 3 5 cbr 210 ------- 0 1.0 5.0 2 3
+ 0.21875 1 2 cbr 210 ------- 0 1.0 5.0 5 6
- 0.21875 1 2 cbr 210 ------- 0 1.0 5.0 5 6
r 0.219002 3 5 cbr 210 ------- 0 1.0 5.0 1 2
r 0.220084 1 2 cbr 210 ------- 0 1.0 5.0 4 5
+ 0.220084 2 3 cbr 210 ------- 0 1.0 5.0 4 5
- 0.220084 2 3 cbr 210 ------- 0 1.0 5.0 4 5
r 0.221418 2 3 cbr 210 ------- 0 1.0 5.0 3 4
+ 0.221418 3 5 cbr 210 ------- 0 1.0 5.0 3 4
- 0.221418 3 5 cbr 210 ------- 0 1.0 5.0 3 4
+ 0.2225 1 2 cbr 210 ------- 0 1.0 5.0 6 7
- 0.2225 1 2 cbr 210 ------- 0 1.0 5.0 6 7
r 0.222752 3 5 cbr 210 ------- 0 1.0 5.0 2 3
r 0.223834 1 2 cbr 210 ------- 0 1.0 5.0 5 6
+ 0.223834 2 3 cbr 210 ------- 0 1.0 5.0 5 6
- 0.223834 2 3 cbr 210 ------- 0 1.0 5.0 5 6
r 0.225168 2 3 cbr 210 ------- 0 1.0 5.0 4 5
+ 0.225168 3 5 cbr 210 ------- 0 1.0 5.0 4 5
- 0.225168 3 5 cbr 210 ------- 0 1.0 5.0 4 5
+ 0.22625 1 2 cbr 210 ------- 0 1.0 5.0 7 8
- 0.22625 1 2 cbr 210 ------- 0 1.0 5.0 7 8
r 0.226502 3 5 cbr 210 ------- 0 1.0 5.0 3 4
r 0.227584 1 2 cbr 210 ------- 0 1.0 5.0 6 7
+ 0.227584 2 3 cbr 210 ------- 0 1.0 5.0 6 7
- 0.227584 2 3 cbr 210 ------- 0 1.0 5.0 6 7
r 0.228918 2 3 cbr 210 ------- 0 1.0 5.0 5 6
+ 0.228918 3 5 cbr 210 ------- 0 1.0 5.0 5 6
- 0.228918 3 5 cbr 210 ------- 0 1.0 5.0 5 6
+ 0.23 1 2 cbr 210 ------- 0 1.0 5.0 8 9
- 0.23 1 2 cbr 210 ------- 0 1.0 5.0 8 9
r 0.230252 3 5 cbr 210 ------- 0 1.0 5.0 4 5
r 0.231334 1 2 cbr 210 ------- 0 1.0 5.0 7 8
+ 0.231334 2 3 cbr 210 ------- 0 1.0 5.0 7 8
- 0.231334 2 3 cbr 210 ------- 0 1.0 5.0 7 8
r 0.232668 2 3 cbr 210 ------- 0 1.0 5.0 6 7
+ 0.232668 3 5 cbr 210 ------- 0 1.0 5.0 6 7
- 0.232668 3 5 cbr 210 ------- 0 1.0 5.0 6 7
+ 0.23375 1 2 cbr 210 ------- 0 1.0 5.0 9 10
- 0.23375 1 2 cbr 210 ------- 0 1.0 5.0 9 10
r 0.234002 3 5 cbr 210 ------- 0 1.0 5.0 5 6
r 0.235084 1 2 cbr 210 ------- 0 1.0 5.0 8 9
+ 0.235084 2 3 cbr 210 ------- 0 1.0 5.0 8 9
- 0.235084 2 3 cbr 210 ------- 0 1.0 5.0 8 9
r 0.236418 2 3 cbr 210 ------- 0 1.0 5.0 7 8
+ 0.236418 3 5 cbr 210 ------- 0 1.0 5.0 7 8
- 0.236418 3 5 cbr 210 ------- 0 1.0 5.0 7 8
+ 0.2375 1 2 cbr 210 ------- 0 1.0 5.0 10 11
- 0.2375 1 2 cbr 210 ------- 0 1.0 5.0 10 11
r 0.237752 3 5 cbr 210 ------- 0 1.0 5.0 6 7
r 0.238834 1 2 cbr 210 ------- 0 1.0 5.0 9 10
d 0.238834 2 3 cbr 210 ------- 0 1.0 5.0 9 10
r 0.240168 2 3 cbr 210 ------- 0 1.0 5.0 8 9
+ 0.240168 3 5 cbr 210 ------- 0 1.0 5.0 8 9
- 0.240168 3 5 cbr 210 ------- 0 1.0 5.0 8 9
+ 0.24125 1 2 cbr 210 ------- 0 1.0 5.0 11 12
- 0.24125 1 2 cbr 210 ------- 0 1.0 5.0 11 12
r 0.241502 3 5 cbr 210 ------- 0 1.0 5.0 7 8
r 0.242584 1 2 cbr 210 ------- 0 1.0 5.0 10 11
d 0.242584 2 3 cbr 210 ------- 0 1.0 5.0 10 11
+ 0.245 1 2 cbr 210 ------- 0 1.0 5.0 12 13
- 0.245 1 2 cbr 210 ------- 0 1.0 5.0 12 13
r 0.245252 3 5 cbr 210 ------- 0 1.0 5.0 8 9
r 0.246334 1 2 cbr 210 ------- 0 1.0 5.0 11 12
+ 0.246334 2 3 cbr 210 ------- 0 1.0 5.0 11 12
- 0.246334 2 3 cbr 210 ------- 0 1.0 5.0 11 12
+ 0.24875 1 2 cbr 210 ------- 0 1.0 5.0 13 14
- 0.24875 1 2 cbr 210 ------- 0 1.0 5.0 13 14
r 0.250084 1 2 cbr 210 ------- 0 1.0 5.0 12 13
d 0.250084 2 3 cbr 210 ------- 0 1.0 5.0 12 13
r 0.251418 2 3 cbr 210 ------- 0 1.0 5.0 11 12
+ 0.251418 3 5 cbr 210 ------- 0 1.0 5.0 11 12
- 0.251418 3 5 cbr 210 ------- 0 1.0 5.0 11 12
+ 0.2525 1 2 cbr 210 ------- 0 1.0 5.0 14 15
- 0.2525 1 2 cbr 210 ------- 0 1.0 5.0 14 15
r 0.253834 1 2 cbr 210 ------- 0 1.0 5.0 13 14
+ 0.253834 2 3 cbr 210 ------- 0 1.0 5.0 13 14
- 0.253834 2 3 cbr 210 ------- 0 1.0 5.0 13 14
+ 0.25625 1 2 cbr 210 ------- 0 1.0 5.0 15 16
- 0.25625 1 2 cbr 210 ------- 0 1.0 5.0 15 16
r 0.256502 3 5 cbr 210 ------- 0 1.0 5.0 11 12
r 0.257584 1 2 cbr 210 ------- 0 1.0 5.0 14 15
+ 0.257584 2 3 cbr 210 ------- 0 1.0 5.0 14 15
- 0.257584 2 3 cbr 210 ------- 0 1.0 5.0 14 15
r 0.258918 2 3 cbr 210 ------- 0 1.0 5.0 13 14
+ 0.258918 3 5 cbr 210 ------- 0 1.0 5.0 13 14
- 0.258918 3 5 cbr 210 ------- 0 1.0 5.0 13 14
+ 0.26 1 2 cbr 210 ------- 0 1.0 5.0 16 17
- 0.26 1 2 cbr 210 ------- 0 1.0 5.0 16 17
r 0.261334 1 2 cbr 210 ------- 0 1.0 5.0 15 16
d 0.261334 2 3 cbr 210 ------- 0 1.0 5.0 15 16
r 0.262668 2 3 cbr 210 ------- 0 1.0 5.0 14 15
+ 0.262668 3 5 cbr 210 ------- 0 1.0 5.0 14 15
- 0.262668 3 5 cbr 210 ------- 0 1.0 5.0 14 15
+ 0.26375 1 2 cbr 210 ------- 0 1.0 5.0 17 18
- 0.26375 1 2 cbr 210 ------- 0 1.0 5.0 17 18
r 0.264002 3 5 cbr 210 ------- 0 1.0 5.0 13 14
r 0.265084 1 2 cbr 210 ------- 0 1.0 5.0 16 17
d 0.265084 2 3 cbr 210 ------- 0 1.0 5.0 16 17
+ 0.2675 1 2 cbr 210 ------- 0 1.0 5.0 18 19
- 0.2675 1 2 cbr 210 ------- 0 1.0 5.0 18 19
r 0.267752 3 5 cbr 210 ------- 0 1.0 5.0 14 15
r 0.268834 1 2 cbr 210 ------- 0 1.0 5.0 17 18
+ 0.268834 2 3 cbr 210 ------- 0 1.0 5.0 17 18
- 0.268834 2 3 cbr 210 ------- 0 1.0 5.0 17 18
+ 0.27125 1 2 cbr 210 ------- 0 1.0 5.0 19 20
- 0.27125 1 2 cbr 210 ------- 0 1.0 5.0 19 20
r 0.272584 1 2 cbr 210 ------- 0 1.0 5.0 18 19
+ 0.272584 2 3 cbr 210 ------- 0 1.0 5.0 18 19
- 0.272584 2 3 cbr 210 ------- 0 1.0 5.0 18 19
r 0.273918 2 3 cbr 210 ------- 0 1.0 5.0 17 18
+ 0.273918 3 5 cbr 210 ------- 0 1.0 5.0 17 18
- 0.273918 3 5 cbr 210 ------- 0 1.0 5.0 17 18
+ 0.275 1 2 cbr 210 ------- 0 1.0 5.0 20 21
- 0.275 1 2 cbr 210 ------- 0 1.0 5.0 20 21
r 0.276334 1 2 cbr 210 ------- 0 1.0 5.0 19 20
+ 0.276334 2 3 cbr 210 ------- 0 1.0 5.0 19 20
- 0.276334 2 3 cbr 210 ------- 0 1.0 5.0 19 20
r 0.277668 2 3 cbr 210 ------- 0 1.0 5.0 18 19
+ 0.277668 3 5 cbr 210 ------- 0 1.0 5.0 18 19
- 0.277668 3 5 cbr 210 ------- 0 1.0 5.0 18 19
+ 0.27875 1 2 cbr 210 ------- 0 1.0 5.0 21 22
- 0.27875 1 2 cbr 210 ------- 0 1.0 5.0 21 22
r 0.279002 3 5 cbr 210 ------- 0 1.0 5.0 17 18
r 0.280084 1 2 cbr 210 ------- 0 1.0 5.0 20 21
+ 0.280084 2 3 cbr 210 ------- 0 1.0 5.0 20 21
- 0.280084 2 3 cbr 210 ------- 0 1.0 5.0 20 21
r 0.281418 2 3 cbr 210 ------- 0 1.0 5.0 19 20
+ 0.281418 3 5 cbr 210 ------- 0 1.0 5.0 19 20
- 0.281418 3 5 cbr 210 ------- 0 1.0 5.0 19 20
+ 0.2825 1 2 cbr 210 ------- 0 1.0 5.0 22 23
- 0.2825 1 2 cbr 210 ------- 0 1.0 5.0 22 23
r 0.282752 3 5 cbr 210 ------- 0 1.0 5.0 18 19
r 0.283834 1 2 cbr 210 ------- 0 1.0 5.0 21 22
+ 0.283834 2 3 cbr 210 ------- 0 1.0 5.0 21 22
- 0.283834 2 3 cbr 210 ------- 0 1.0 5.0 21 22
r 0.285168 2 3 cbr 210 ------- 0 1.0 5.0 20 21
+ 0.285168 3 5 cbr 210 ------- 0 1.0 5.0 20 21
- 0.285168 3 5 cbr 210 ------- 0 1.0 5.0 20 21
+ 0.28625 1 2 cbr 210 ------- 0 1.0 5.0 23 24
- 0.28625 1 2 cbr 210 ------- 0 1.0 5.0 23 24
r 0.286502 3 5 cbr 210 ------- 0 1.0 5.0 19 20
r 0.287584 1 2 cbr 210 ------- 0 1.0 5.0 22 23
+ 0.287584 2 3 cbr 210 ------- 0 1.0 5.0 22 23
- 0.287584 2 3 cbr 210 ------- 0 1.0 5.0 22 23
r 0.288918 2 3 cbr 210 ------- 0 1.0 5.0 21 22
+ 0.288918 3 5 cbr 210 ------- 0 1.0 5.0 21 22
- 0.288918 3 5 cbr 210 ------- 0 1.0 5.0 21 22
+ 0.29 1 2 cbr 210 ------- 0 1.0 5.0 24 25
- 0.29 1 2 cbr 210 ------- 0 1.0 5.0 24 25
r 0.290252 3 5 cbr 210 ------- 0 1.0 5.0 20 21
r 0.291334 1 2 cbr 210 ------- 0 1.0 5.0 23 24
+ 0.291334 2 3 cbr 210 ------- 0 1.0 5.0 23 24
- 0.291334 2 3 cbr 210 ------- 0 1.0 5.0 23 24
r 0.292668 2 3 cbr 210 ------- 0 1.0 5.0 22 23
+ 0.292668 3 5 cbr 210 ------- 0 1.0 5.0 22 23
- 0.292668 3 5 cbr 210 ------- 0 1.0 5.0 22 23
+ 0.29375 1 2 cbr 210 ------- 0 1.0 5.0 25 26
- 0.29375 1 2 cbr 210 ------- 0 1.0 5.0 25 26
r 0.294002 3 5 cbr 210 ------- 0 1.0 5.0 21 22
r 0.295084 1 2 cbr 210 ------- 0 1.0 5.0 24 25
+ 0.295084 2 3 cbr 210 ------- 0 1.0 5.0 24 25
- 0.295084 2 3 cbr 210 ------- 0 1.0 5.0 24 25
r 0.296418 2 3 cbr 210 ------- 0 1.0 5.0 23 24
+ 0.296418 3 5 cbr 210 ------- 0 1.0 5.0 23 24
- 0.296418 3 5 cbr 210 ------- 0 1.0 5.0 23 24
+ 0.2975 1 2 cbr 210 ------- 0 1.0 5.0 26 27
- 0.2975 1 2 cbr 210 ------- 0 1.0 5.0 26 27
r 0.297752 3 5 cbr 210 ------- 0 1.0 5.0 22 23
r 0.298834 1 2 cbr 210 ------- 0 1.0 5.0 25 26
+ 0.298834 2 3 cbr 210 ------- 0 1.0 5.0 25 26
- 0.298834 2 3 cbr 210 ------- 0 1.0 5.0 25 26
r 0.300168 2 3 cbr 210 ------- 0 1.0 5.0 24 25
+ 0.300168 3 5 cbr 210 ------- 0 1.0 5.0 24 25
- 0.300168 3 5 cbr 210 ------- 0 1.0 5.0 24 25
+ 0.30125 1 2 cbr 210 ------- 0 1.0 5.0 27 28
- 0.30125 1 2 cbr 210 ------- 0 1.0 5.0 27 28
r 0.301502 3 5 cbr 210 ------- 0 1.0 5.0 23 24
r 0.302584 1 2 cbr 210 ------- 0 1.0 5.0 26 27
+ 0.302584 2 3 cbr 210 ------- 0 1.0 5.0 26 27
- 0.302584 2 3 cbr 210 ------- 0 1.0 5.0 26 27
r 0.303918 2 3 cbr 210 ------- 0 1.0 5.0 25 26
+ 0.303918 3 5 cbr 210 ------- 0 1.0 5.0 25 26
- 0.303918 3 5 cbr 210 ------- 0 1.0 5.0 25 26
+ 0.305 1 2 cbr 210 ------- 0 1.0 5.0 28 29
- 0.305 1 2 cbr 210 ------- 0 1.0 5.0 28 29
r 0.305252 3 5 cbr 210 ------- 0 1.0 5.0 24 25
r 0.306334 1 2 cbr 210 ------- 0 1.0 5.0 27 28
+ 0.306334 2 3 cbr 210 ------- 0 1.0 5.0 27 28
- 0.306334 2 3 cbr 210 ------- 0 1.0 5.0 27 28
r 0.307668 2 3 cbr 210 ------- 0 1.0 5.0 26 27
+ 0.307668 3 5 cbr 210 ------- 0 1.0 5.0 26 27
- 0.307668 3 5 cbr 210 ------- 0 1.0 5.0 26 27
+ 0.30875 1 2 cbr 210 ------- 0 1.0 5.0 29 30
- 0.30875 1 2 cbr 210 ------- 0 1.0 5.0 29 30
r 0.309002 3 5 cbr 210 ------- 0 1.0 5.0 25 26
r 0.310084 1 2 cbr 210 ------- 0 1.0 5.0 28 29
+ 0.310084 2 3 cbr 210 ------- 0 1.0 5.0 28 29
- 0.310084 2 3 cbr 210 ------- 0 1.0 5.0 28 29
r 0.311418 2 3 cbr 210 ------- 0 1.0 5.0 27 28
+ 0.311418 3 5 cbr 210 ------- 0 1.0 5.0 27 28
- 0.311418 3 5 cbr 210 ------- 0 1.0 5.0 27 28
+ 0.3125 1 2 cbr 210 ------- 0 1.0 5.0 30 31
- 0.3125 1 2 cbr 210 ------- 0 1.0 5.0 30 31
r 0.312752 3 5 cbr 210 ------- 0 1.0 5.0 26 27
r 0.313834 1 2 cbr 210 ------- 0 1.0 5.0 29 30
+ 0.313834 2 3 cbr 210 ------- 0 1.0 5.0 29 30
- 0.313834 2 3 cbr 210 ------- 0 1.0 5.0 29 30
r 0.315168 2 3 cbr 210 ------- 0 1.0 5.0 28 29
+ 0.315168 3 5 cbr 210 ------- 0 1.0 5.0 28 29
- 0.315168 3 5 cbr 210 ------- 0 1.0 5.0 28 29
+ 0.31625 1 2 cbr 210 ------- 0 1.0 5.0 31 32
- 0.31625 1 2 cbr 210 ------- 0 1.0 5.0 31 32
r 0.316502 3 5 cbr 210 ------- 0 1.0 5.0 27 28
r 0.317584 1 2 cbr 210 ------- 0 1.0 5.0 30 31
+ 0.317584 2 3 cbr 210 ------- 0 1.0 5.0 30 31
- 0.317584 2 3 cbr 210 ------- 0 1.0 5.0 30 31
r 0.318918 2 3 cbr 210 ------- 0 1.0 5.0 29 30
+ 0.318918 3 5 cbr 210 ------- 0 1.0 5.0 29 30
- 0.318918 3 5 cbr 210 ------- 0 1.0 5.0 29 30
+ 0.32 1 2 cbr 210 ------- 0 1.0 5.0 32 33
- 0.32 1 2 cbr 210 ------- 0 1.0 5.0 32 33
r 0.320252 3 5 cbr 210 ------- 0 1.0 5.0 28 29
r 0.321334 1 2 cbr 210 ------- 0 1.0 5.0 31 32
+ 0.321334 2 3 cbr 210 ------- 0 1.0 5.0 31 32
- 0.321334 2 3 cbr 210 ------- 0 1.0 5.0 31 32
r 0.322668 2 3 cbr 210 ------- 0 1.0 5.0 30 31
+ 0.322668 3 5 cbr 210 ------- 0 1.0 5.0 30 31
- 0.322668 3 5 cbr 210 ------- 0 1.0 5.0 30 31
+ 0.32375 1 2 cbr 210 ------- 0 1.0 5.0 33 34
- 0.32375 1 2 cbr 210 ------- 0 1.0 5.0 33 34
r 0.324002 3 5 cbr 210 ------- 0 1.0 5.0 29 30
r 0.325084 1 2 cbr 210 ------- 0 1.0 5.0 32 33
+ 0.325084 2 3 cbr 210 ------- 0 1.0 5.0 32 33
- 0.325084 2 3 cbr 210 ------- 0 1.0 5.0 32 33
r 0.326418 2 3 cbr 210 ------- 0 1.0 5.0 31 32
+ 0.326418 3 5 cbr 210 ------- 0 1.0 5.0 31 32
- 0.326418 3 5 cbr 210 ------- 0 1.0 5.0 31 32
+ 0.3275 1 2 cbr 210 ------- 0 1.0 5.0 34 35
- 0.3275 1 2 cbr 210 ------- 0 1.0 5.0 34 35
r 0.327752 3 5 cbr 210 ------- 0 1.0 5.0 30 31
r 0.328834 1 2 cbr 210 ------- 0 1.0 5.0 33 34
d 0.328834 2 3 cbr 210 ------- 0 1.0 5.0 33 34
r 0.330168 2 3 cbr 210 ------- 0 1.0 5.0 32 33
+ 0.330168 3 5 cbr 210 ------- 0 1.0 5.0 32 33
- 0.330168 3 5 cbr 210 ------- 0 1.0 5.0 32 33
+ 0.33125 1 2 cbr 210 ------- 0 1.0 5.0 35 36
- 0.33125 1 2 cbr 210 ------- 0 1.0 5.0 35 36
r 0.331502 3 5 cbr 210 ------- 0 1.0 5.0 31 32
r 0.332584 1 2 cbr 210 ------- 0 1.0 5.0 34 35
+ 0.332584 2 3 cbr 210 ------- 0 1.0 5.0 34 35
- 0.332584 2 3 cbr 210 ------- 0 1.0 5.0 34 35
+ 0.335 1 2 cbr 210 ------- 0 1.0 5.0 36 37
- 0.335 1 2 cbr 210 ------- 0 1.0 5.0 36 37
r 0.335252 3 5 cbr 210 ------- 0 1.0 5.0 32 33
r 0.336334 1 2 cbr 210 ------- 0 1.0 5.0 35 36
d 0.336334 2 3 cbr 210 ------- 0 1.0 5.0 35 36
r 0.337668 2 3 cbr 210 ------- 0 1.0 5.0 34 35
+ 0.337668 3 5 cbr 210 ------- 0 1.0 5.0 34 35
- 0.337668 3 5 cbr 210 ------- 0 1.0 5.0 34 35
+ 0.33875 1 2 cbr 210 ------- 0 1.0 5.0 37 38
- 0.33875 1 2 cbr 210 ------- 0 1.0 5.0 37 38
r 0.340084 1 2 cbr 210 ------- 0 1.0 5.0 36 37
+ 0.340084 2 3 cbr 210 ------- 0 1.0 5.0 36 37
- 0.340084 2 3 cbr 210 ------- 0 1.0 5.0 36 37
+ 0.3425 1 2 cbr 210 ------- 0 1.0 5.0 38 39
- 0.3425 1 2 cbr 210 ------- 0 1.0 5.0 38 39
r 0.342752 3 5 cbr 210 ------- 0 1.0 5.0 34 35
r 0.343834 1 2 cbr 210 ------- 0 1.0 5.0 37 38
+ 0.343834 2 3 cbr 210 ------- 0 1.0 5.0 37 38
- 0.343834 2 3 cbr 210 ------- 0 1.0 5.0 37 38
r 0.345168 2 3 cbr 210 ------- 0 1.0 5.0 36 37
+ 0.345168 3 5 cbr 210 ------- 0 1.0 5.0 36 37
- 0.345168 3 5 cbr 210 ------- 0 1.0 5.0 36 37
+ 0.34625 1 2 cbr 210 ------- 0 1.0 5.0 39 40
- 0.34625 1 2 cbr 210 ------- 0 1.0 5.0 39 40
r 0.347584 1 2 cbr 210 ------- 0 1.0 5.0 38 39
+ 0.347584 2 3 cbr 210 ------- 0 1.0 5.0 38 39
- 0.347584 2 3 cbr 210 ------- 0 1.0 5.0 38 39
r 0.348918 2 3 cbr 210 ------- 0 1.0 5.0 37 38
+ 0.348918 3 5 cbr 210 ------- 0 1.0 5.0 37 38
- 0.348918 3 5 cbr 210 ------- 0 1.0 5.0 37 38
+ 0.35 1 2 cbr 210 ------- 0 1.0 5.0 40 41
- 0.35 1 2 cbr 210 ------- 0 1.0 5.0 40 41
r 0.350252 3 5 cbr 210 ------- 0 1.0 5.0 36 37
r 0.351334 1 2 cbr 210 ------- 0 1.0 5.0 39 40
d 0.351334 2 3 cbr 210 ------- 0 1.0 5.0 39 40
r 0.352668 2 3 cbr 210 ------- 0 1.0 5.0 38 39
+ 0.352668 3 5 cbr 210 ------- 0 1.0 5.0 38 39
- 0.352668 3 5 cbr 210 ------- 0 1.0 5.0 38 39
+ 0.35375 1 2 cbr 210 ------- 0 1.0 5.0 41 42
- 0.35375 1 2 cbr 210 ------- 0 1.0 5.0 41 42
r 0.354002 3 5 cbr 210 ------- 0 1.0 5.0 37 38
r 0.355084 1 2 cbr 210 ------- 0 1.0 5.0 40 41
d 0.355084 2 3 cbr 210 ------- 0 1.0 5.0 40 41
+ 0.3575 1 2 cbr 210 ------- 0 1.0 5.0 42 43
- 0.3575 1 2 cbr 210 ------- 0 1.0 5.0 42 43
r 0.357752 3 5 cbr 210 ------- 0 1.0 5.0 38 39
r 0.358834 1 2 cbr 210 ------- 0 1.0 5.0 41 42
d 0.358834 2 3 cbr 210 ------- 0 1.0 5.0 41 42
+ 0.36125 1 2 cbr 210 ------- 0 1.0 5.0 43 44
- 0.36125 1 2 cbr 210 ------- 0 1.0 5.0 43 44
r 0.362584 1 2 cbr 210 ------- 0 1.0 5.0 42 43
+ 0.362584 2 3 cbr 210 ------- 0 1.0 5.0 42 43
- 0.362584 2 3 cbr 210 ------- 0 1.0 5.0 42 43
+ 0.365 1 2 cbr 210 ------- 0 1.0 5.0 44 45
- 0.365 1 2 cbr 210 ------- 0 1.0 5.0 44 45
r 0.366334 1 2 cbr 210 ------- 0 1.0 5.0 43 44
+ 0.366334 2 3 cbr 210 ------- 0 1.0 5.0 43 44
- 0.366334 2 3 cbr 210 ------- 0 1.0 5.0 43 44
r 0.367668 2 3 cbr 210 ------- 0 1.0 5.0 42 43
+ 0.367668 3 5 cbr 210 ------- 0 1.0 5.0 42 43
- 0.367668 3 5 cbr 210 ------- 0 1.0 5.0 42 43
+ 0.36875 1 2 cbr 210 ------- 0 1.0 5.0 45 46
- 0.36875 1 2 cbr 210 ------- 0 1.0 5.0 45 46
r 0.370084 1 2 cbr 210 ------- 0 1.0 5.0 44 45
d 0.370084 2 3 cbr 210 ------- 0 1.0 5.0 44 45
r 0.371418 2 3 cbr 210 ------- 0 1.0 5.0 43 44
+ 0.371418 3 5 cbr 210 ------- 0 1.0 5.0 43 44
- 0.371418 3 5 cbr 210 ------- 0 1.0 5.0 43 44
+ 0.3725 1 2 cbr 210 ------- 0 1.0 5.0 46 47
- 0.3725 1 2 cbr 210 ------- 0 1.0 5.0 46 47
r 0.372752 3 5 cbr 210 ------- 0 1.0 5.0 42 43
r 0.373834 1 2 cbr 210 ------- 0 1.0 5.0 45 46
+ 0.373834 2 3 cbr 210 ------- 0 1.0 5.0 45 46
- 0.373834 2 3 cbr 210 ------- 0 1.0 5.0 45 46
+ 0.37625 1 2 cbr 210 ------- 0 1.0 5.0 47 48
- 0.37625 1 2 cbr 210 ------- 0 1.0 5.0 47 48
r 0.376502 3 5 cbr 210 ------- 0 1.0 5.0 43 44
r 0.377584 1 2 cbr 210 ------- 0 1.0 5.0 46 47
+ 0.377584 2 3 cbr 210 ------- 0 1.0 5.0 46 47
- 0.377584 2 3 cbr 210 ------- 0 1.0 5.0 46 47
r 0.378918 2 3 cbr 210 ------- 0 1.0 5.0 45 46
+ 0.378918 3 5 cbr 210 ------- 0 1.0 5.0 45 46
- 0.378918 3 5 cbr 210 ------- 0 1.0 5.0 45 46
+ 0.38 1 2 cbr 210 ------- 0 1.0 5.0 48 49
- 0.38 1 2 cbr 210 ------- 0 1.0 5.0 48 49
r 0.381334 1 2 cbr 210 ------- 0 1.0 5.0 47 48
+ 0.381334 2 3 cbr 210 ------- 0 1.0 5.0 47 48
- 0.381334 2 3 cbr 210 ------- 0 1.0 5.0 47 48
r 0.382668 2 3 cbr 210 ------- 0 1.0 5.0 46 47
+ 0.382668 3 5 cbr 210 ------- 0 1.0 5.0 46 47
- 0.382668 3 5 cbr 210 ------- 0 1.0 5.0 46 47
+ 0.38375 1 2 cbr 210 ------- 0 1.0 5.0 49 50
- 0.38375 1 2 cbr 210 ------- 0 1.0 5.0 49 50
r 0.384002 3 5 cbr 210 ------- 0 1.0 5.0 45 46
r 0.385084 1 2 cbr 210 ------- 0 1.0 5.0 48 49
+ 0.385084 2 3 cbr 210 ------- 0 1.0 5.0 48 49
- 0.385084 2 3 cbr 210 ------- 0 1.0 5.0 48 49
r 0.386418 2 3 cbr 210 ------- 0 1.0 5.0 47 48
+ 0.386418 3 5 cbr 210 ------- 0 1.0 5.0 47 48
- 0.386418 3 5 cbr 210 ------- 0 1.0 5.0 47 48
+ 0.3875 1 2 cbr 210 ------- 0 1.0 5.0 50 51
- 0.3875 1 2 cbr 210 ------- 0 1.0 5.0 50 51
r 0.387752 3 5 cbr 210 ------- 0 1.0 5.0 46 47
r 0.388834 1 2 cbr 210 ------- 0 1.0 5.0 49 50
+ 0.388834 2 3 cbr 210 ------- 0 1.0 5.0 49 50
- 0.388834 2 3 cbr 210 ------- 0 1.0 5.0 49 50
r 0.390168 2 3 cbr 210 ------- 0 1.0 5.0 48 49
+ 0.390168 3 5 cbr 210 ------- 0 1.0 5.0 48 49
- 0.390168 3 5 cbr 210 ------- 0 1.0 5.0 48 49
+ 0.39125 1 2 cbr 210 ------- 0 1.0 5.0 51 52
- 0.39125 1 2 cbr 210 ------- 0 1.0 5.0 51 52
r 0.391502 3 5 cbr 210 ------- 0 1.0 5.0 47 48
r 0.392584 1 2 cbr 210 ------- 0 1.0 5.0 50 51
+ 0.392584 2 3 cbr 210 ------- 0 1.0 5.0 50 51
- 0.392584 2 3 cbr 210 ------- 0 1.0 5.0 50 51
r 0.393918 2 3 cbr 210 ------- 0 1.0 5.0 49 50
+ 0.393918 3 5 cbr 210 ------- 0 1.0 5.0 49 50
- 0.393918 3 5 cbr 210 ------- 0 1.0 5.0 49 50
+ 0.395 1 2 cbr 210 ------- 0 1.0 5.0 52 53
- 0.395 1 2 cbr 210 ------- 0 1.0 5.0 52 53
r 0.395252 3 5 cbr 210 ------- 0 1.0 5.0 48 49
r 0.396334 1 2 cbr 210 ------- 0 1.0 5.0 51 52
+ 0.396334 2 3 cbr 210 ------- 0 1.0 5.0 51 52
- 0.396334 2 3 cbr 210 ------- 0 1.0 5.0 51 52
r 0.397668 2 3 cbr 210 ------- 0 1.0 5.0 50 51
+ 0.397668 3 5 cbr 210 ------- 0 1.0 5.0 50 51
- 0.397668 3 5 cbr 210 ------- 0 1.0 5.0 50 51
+ 0.39875 1 2 cbr 210 ------- 0 1.0 5.0 53 54
- 0.39875 1 2 cbr 210 ------- 0 1.0 5.0 53 54
r 0.399002 3 5 cbr 210 ------- 0 1.0 5.0 49 50
r 0.400084 1 2 cbr 210 ------- 0 1.0 5.0 52 53
+ 0.400084 2 3 cbr 210 ------- 0 1.0 5.0 52 53
- 0.400084 2 3 cbr 210 ------- 0 1.0 5.0 52 53
r 0.401418 2 3 cbr 210 ------- 0 1.0 5.0 51 52
+ 0.401418 3 5 cbr 210 ------- 0 1.0 5.0 51 52
- 0.401418 3 5 cbr 210 ------- 0 1.0 5.0 51 52
+ 0.4025 1 2 cbr 210 ------- 0 1.0 5.0 54 55
- 0.4025 1 2 cbr 210 ------- 0 1.0 5.0 54 55
r 0.402752 3 5 cbr 210 ------- 0 1.0 5.0 50 51
r 0.403834 1 2 cbr 210 ------- 0 1.0 5.0 53 54
d 0.403834 2 3 cbr 210 ------- 0 1.0 5.0 53 54
r 0.405168 2 3 cbr 210 ------- 0 1.0 5.0 52 53
+ 0.405168 3 5 cbr 210 ------- 0 1.0 5.0 52 53
- 0.405168 3 5 cbr 210 ------- 0 1.0 5.0 52 53
+ 0.40625 1 2 cbr 210 ------- 0 1.0 5.0 55 56
- 0.40625 1 2 cbr 210 ------- 0 1.0 5.0 55 56
r 0.406502 3 5 cbr 210 ------- 0 1.0 5.0 51 52
r 0.407584 1 2 cbr 210 ------- 0 1.0 5.0 54 55
+ 0.407584 2 3 cbr 210 ------- 0 1.0 5.0 54 55
- 0.407584 2 3 cbr 210 ------- 0 1.0 5.0 54 55
+ 0.41 1 2 cbr 210 ------- 0 1.0 5.0 56 57
- 0.41 1 2 cbr 210 ------- 0 1.0 5.0 56 57
r 0.410252 3 5 cbr 210 ------- 0 1.0 5.0 52 53
r 0.411334 1 2 cbr 210 ------- 0 1.0 5.0 55 56
d 0.411334 2 3 cbr 210 ------- 0 1.0 5.0 55 56
r 0.412668 2 3 cbr 210 ------- 0 1.0 5.0 54 55
+ 0.412668 3 5 cbr 210 ------- 0 1.0 5.0 54 55
- 0.412668 3 5 cbr 210 ------- 0 1.0 5.0 54 55
+ 0.41375 1 2 cbr 210 ------- 0 1.0 5.0 57 58
- 0.41375 1 2 cbr 210 ------- 0 1.0 5.0 57 58
r 0.415084 1 2 cbr 210 ------- 0 1.0 5.0 56 57
+ 0.415084 2 3 cbr 210 ------- 0 1.0 5.0 56 57
- 0.415084 2 3 cbr 210 ------- 0 1.0 5.0 56 57
+ 0.4175 1 2 cbr 210 ------- 0 1.0 5.0 58 59
- 0.4175 1 2 cbr 210 ------- 0 1.0 5.0 58 59
r 0.417752 3 5 cbr 210 ------- 0 1.0 5.0 54 55
r 0.418834 1 2 cbr 210 ------- 0 1.0 5.0 57 58
+ 0.418834 2 3 cbr 210 ------- 0 1.0 5.0 57 58
- 0.418834 2 3 cbr 210 ------- 0 1.0 5.0 57 58
r 0.420168 2 3 cbr 210 ------- 0 1.0 5.0 56 57
+ 0.420168 3 5 cbr 210 ------- 0 1.0 5.0 56 57
- 0.420168 3 5 cbr 210 ------- 0 1.0 5.0 56 57
+ 0.42125 1 2 cbr 210 ------- 0 1.0 5.0 59 60
- 0.42125 1 2 cbr 210 ------- 0 1.0 5.0 59 60
r 0.422584 1 2 cbr 210 ------- 0 1.0 5.0 58 59
+ 0.422584 2 3 cbr 210 ------- 0 1.0 5.0 58 59
- 0.422584 2 3 cbr 210 ------- 0 1.0 5.0 58 59
r 0.423918 2 3 cbr 210 ------- 0 1.0 5.0 57 58
+ 0.423918 3 5 cbr 210 ------- 0 1.0 5.0 57 58
- 0.423918 3 5 cbr 210 ------- 0 1.0 5.0 57 58
+ 0.425 1 2 cbr 210 ------- 0 1.0 5.0 60 61
- 0.425 1 2 cbr 210 ------- 0 1.0 5.0 60 61
r 0.425252 3 5 cbr 210 ------- 0 1.0 5.0 56 57
r 0.426334 1 2 cbr 210 ------- 0 1.0 5.0 59 60
+ 0.426334 2 3 cbr 210 ------- 0 1.0 5.0 59 60
- 0.426334 2 3 cbr 210 ------- 0 1.0 5.0 59 60
r 0.427668 2 3 cbr 210 ------- 0 1.0 5.0 58 59
+ 0.427668 3 5 cbr 210 ------- 0 1.0 5.0 58 59
- 0.427668 3 5 cbr 210 ------- 0 1.0 5.0 58 59
+ 0.42875 1 2 cbr 210 ------- 0 1.0 5.0 61 62
- 0.42875 1 2 cbr 210 ------- 0 1.0 5.0 61 62
r 0.429002 3 5 cbr 210 ------- 0 1.0 5.0 57 58
r 0.430084 1 2 cbr 210 ------- 0 1.0 5.0 60 61
+ 0.430084 2 3 cbr 210 ------- 0 1.0 5.0 60 61
- 0.430084 2 3 cbr 210 ------- 0 1.0 5.0 60 61
r 0.431418 2 3 cbr 210 ------- 0 1.0 5.0 59 60
+ 0.431418 3 5 cbr 210 ------- 0 1.0 5.0 59 60
- 0.431418 3 5 cbr 210 ------- 0 1.0 5.0 59 60
+ 0.4325 1 2 cbr 210 ------- 0 1.0 5.0 62 63
- 0.4325 1 2 cbr 210 ------- 0 1.0 5.0 62 63
r 0.432752 3 5 cbr 210 ------- 0 1.0 5.0 58 59
r 0.433834 1 2 cbr 210 ------- 0 1.0 5.0 61 62
d 0.433834 2 3 cbr 210 ------- 0 1.0 5.0 61 62
r 0.435168 2 3 cbr 210 ------- 0 1.0 5.0 60 61
+ 0.435168 3 5 cbr 210 ------- 0 1.0 5.0 60 61
- 0.435168 3 5 cbr 210 ------- 0 1.0 5.0 60 61
+ 0.43625 1 2 cbr 210 ------- 0 1.0 5.0 63 64
- 0.43625 1 2 cbr 210 ------- 0 1.0 5.0 63 64
r 0.436502 3 5 cbr 210 ------- 0 1.0 5.0 59 60
r 0.437584 1 2 cbr 210 ------- 0 1.0 5.0 62 63
+ 0.437584 2 3 cbr 210 ------- 0 1.0 5.0 62 63
- 0.437584 2 3 cbr 210 ------- 0 1.0 5.0 62 63
+ 0.44 1 2 cbr 210 ------- 0 1.0 5.0 64 65
- 0.44 1 2 cbr 210 ------- 0 1.0 5.0 64 65
r 0.440252 3 5 cbr 210 ------- 0 1.0 5.0 60 61
r 0.441334 1 2 cbr 210 ------- 0 1.0 5.0 63 64
d 0.441334 2 3 cbr 210 ------- 0 1.0 5.0 63 64
r 0.442668 2 3 cbr 210 ------- 0 1.0 5.0 62 63
+ 0.442668 3 5 cbr 210 ------- 0 1.0 5.0 62 63
- 0.442668 3 5 cbr 210 ------- 0 1.0 5.0 62 63
+ 0.44375 1 2 cbr 210 ------- 0 1.0 5.0 65 66
- 0.44375 1 2 cbr 210 ------- 0 1.0 5.0 65 66
r 0.445084 1 2 cbr 210 ------- 0 1.0 5.0 64 65
+ 0.445084 2 3 cbr 210 ------- 0 1.0 5.0 64 65
- 0.445084 2 3 cbr 210 ------- 0 1.0 5.0 64 65
+ 0.4475 1 2 cbr 210 ------- 0 1.0 5.0 66 67
- 0.4475 1 2 cbr 210 ------- 0 1.0 5.0 66 67
r 0.447752 3 5 cbr 210 ------- 0 1.0 5.0 62 63
r 0.448834 1 2 cbr 210 ------- 0 1.0 5.0 65 66
d 0.448834 2 3 cbr 210 ------- 0 1.0 5.0 65 66
r 0.450168 2 3 cbr 210 ------- 0 1.0 5.0 64 65
+ 0.450168 3 5 cbr 210 ------- 0 1.0 5.0 64 65
- 0.450168 3 5 cbr 210 ------- 0 1.0 5.0 64 65
+ 0.45125 1 2 cbr 210 ------- 0 1.0 5.0 67 68
- 0.45125 1 2 cbr 210 ------- 0 1.0 5.0 67 68
r 0.452584 1 2 cbr 210 ------- 0 1.0 5.0 66 67
+ 0.452584 2 3 cbr 210 ------- 0 1.0 5.0 66 67
- 0.452584 2 3 cbr 210 ------- 0 1.0 5.0 66 67
+ 0.455 1 2 cbr 210 ------- 0 1.0 5.0 68 69
- 0.455 1 2 cbr 210 ------- 0 1.0 5.0 68 69
r 0.455252 3 5 cbr 210 ------- 0 1.0 5.0 64 65
r 0.456334 1 2 cbr 210 ------- 0 1.0 5.0 67 68
+ 0.456334 2 3 cbr 210 ------- 0 1.0 5.0 67 68
- 0.456334 2 3 cbr 210 ------- 0 1.0 5.0 67 68
r 0.457668 2 3 cbr 210 ------- 0 1.0 5.0 66 67
+ 0.457668 3 5 cbr 210 ------- 0 1.0 5.0 66 67
- 0.457668 3 5 cbr 210 ------- 0 1.0 5.0 66 67
+ 0.45875 1 2 cbr 210 ------- 0 1.0 5.0 69 70
- 0.45875 1 2 cbr 210 ------- 0 1.0 5.0 69 70
r 0.460084 1 2 cbr 210 ------- 0 1.0 5.0 68 69
+ 0.460084 2 3 cbr 210 ------- 0 1.0 5.0 68 69
- 0.460084 2 3 cbr 210 ------- 0 1.0 5.0 68 69
r 0.461418 2 3 cbr 210 ------- 0 1.0 5.0 67 68
+ 0.461418 3 5 cbr 210 ------- 0 1.0 5.0 67 68
- 0.461418 3 5 cbr 210 ------- 0 1.0 5.0 67 68
+ 0.4625 1 2 cbr 210 ------- 0 1.0 5.0 70 71
- 0.4625 1 2 cbr 210 ------- 0 1.0 5.0 70 71
r 0.462752 3 5 cbr 210 ------- 0 1.0 5.0 66 67
r 0.463834 1 2 cbr 210 ------- 0 1.0 5.0 69 70
+ 0.463834 2 3 cbr 210 ------- 0 1.0 5.0 69 70
- 0.463834 2 3 cbr 210 ------- 0 1.0 5.0 69 70
r 0.465168 2 3 cbr 210 ------- 0 1.0 5.0 68 69
+ 0.465168 3 5 cbr 210 ------- 0 1.0 5.0 68 69
- 0.465168 3 5 cbr 210 ------- 0 1.0 5.0 68 69
+ 0.46625 1 2 cbr 210 ------- 0 1.0 5.0 71 72
- 0.46625 1 2 cbr 210 ------- 0 1.0 5.0 71 72
r 0.466502 3 5 cbr 210 ------- 0 1.0 5.0 67 68
r 0.467584 1 2 cbr 210 ------- 0 1.0 5.0 70 71
d 0.467584 2 3 cbr 210 ------- 0 1.0 5.0 70 71
r 0.468918 2 3 cbr 210 ------- 0 1.0 5.0 69 70
+ 0.468918 3 5 cbr 210 ------- 0 1.0 5.0 69 70
- 0.468918 3 5 cbr 210 ------- 0 1.0 5.0 69 70
+ 0.47 1 2 cbr 210 ------- 0 1.0 5.0 72 73
- 0.47 1 2 cbr 210 ------- 0 1.0 5.0 72 73
r 0.470252 3 5 cbr 210 ------- 0 1.0 5.0 68 69
r 0.471334 1 2 cbr 210 ------- 0 1.0 5.0 71 72
+ 0.471334 2 3 cbr 210 ------- 0 1.0 5.0 71 72
- 0.471334 2 3 cbr 210 ------- 0 1.0 5.0 71 72
+ 0.47375 1 2 cbr 210 ------- 0 1.0 5.0 73 74
- 0.47375 1 2 cbr 210 ------- 0 1.0 5.0 73 74
r 0.474002 3 5 cbr 210 ------- 0 1.0 5.0 69 70
r 0.475084 1 2 cbr 210 ------- 0 1.0 5.0 72 73
+ 0.475084 2 3 cbr 210 ------- 0 1.0 5.0 72 73
- 0.475084 2 3 cbr 210 ------- 0 1.0 5.0 72 73
r 0.476418 2 3 cbr 210 ------- 0 1.0 5.0 71 72
+ 0.476418 3 5 cbr 210 ------- 0 1.0 5.0 71 72
- 0.476418 3 5 cbr 210 ------- 0 1.0 5.0 71 72
+ 0.4775 1 2 cbr 210 ------- 0 1.0 5.0 74 75
- 0.4775 1 2 cbr 210 ------- 0 1.0 5.0 74 75
r 0.478834 1 2 cbr 210 ------- 0 1.0 5.0 73 74
+ 0.478834 2 3 cbr 210 ------- 0 1.0 5.0 73 74
- 0.478834 2 3 cbr 210 ------- 0 1.0 5.0 73 74
r 0.480168 2 3 cbr 210 ------- 0 1.0 5.0 72 73
+ 0.480168 3 5 cbr 210 ------- 0 1.0 5.0 72 73
- 0.480168 3 5 cbr 210 ------- 0 1.0 5.0 72 73
+ 0.48125 1 2 cbr 210 ------- 0 1.0 5.0 75 76
- 0.48125 1 2 cbr 210 ------- 0 1.0 5.0 75 76
r 0.481502 3 5 cbr 210 ------- 0 1.0 5.0 71 72
r 0.482584 1 2 cbr 210 ------- 0 1.0 5.0 74 75
+ 0.482584 2 3 cbr 210 ------- 0 1.0 5.0 74 75
- 0.482584 2 3 cbr 210 ------- 0 1.0 5.0 74 75
r 0.483918 2 3 cbr 210 ------- 0 1.0 5.0 73 74
+ 0.483918 3 5 cbr 210 ------- 0 1.0 5.0 73 74
- 0.483918 3 5 cbr 210 ------- 0 1.0 5.0 73 74
+ 0.485 1 2 cbr 210 ------- 0 1.0 5.0 76 77
- 0.485 1 2 cbr 210 ------- 0 1.0 5.0 76 77
r 0.485252 3 5 cbr 210 ------- 0 1.0 5.0 72 73
r 0.486334 1 2 cbr 210 ------- 0 1.0 5.0 75 76
+ 0.486334 2 3 cbr 210 ------- 0 1.0 5.0 75 76
- 0.486334 2 3 cbr 210 ------- 0 1.0 5.0 75 76
r 0.487668 2 3 cbr 210 ------- 0 1.0 5.0 74 75
+ 0.487668 3 5 cbr 210 ------- 0 1.0 5.0 74 75
- 0.487668 3 5 cbr 210 ------- 0 1.0 5.0 74 75
+ 0.48875 1 2 cbr 210 ------- 0 1.0 5.0 77 78
- 0.48875 1 2 cbr 210 ------- 0 1.0 5.0 77 78
r 0.489002 3 5 cbr 210 ------- 0 1.0 5.0 73 74
r 0.490084 1 2 cbr 210 ------- 0 1.0 5.0 76 77
+ 0.490084 2 3 cbr 210 ------- 0 1.0 5.0 76 77
- 0.490084 2 3 cbr 210 ------- 0 1.0 5.0 76 77
r 0.491418 2 3 cbr 210 ------- 0 1.0 5.0 75 76
+ 0.491418 3 5 cbr 210 ------- 0 1.0 5.0 75 76
- 0.491418 3 5 cbr 210 ------- 0 1.0 5.0 75 76
+ 0.4925 1 2 cbr 210 ------- 0 1.0 5.0 78 79
- 0.4925 1 2 cbr 210 ------- 0 1.0 5.0 78 79
r 0.492752 3 5 cbr 210 ------- 0 1.0 5.0 74 75
r 0.493834 1 2 cbr 210 ------- 0 1.0 5.0 77 78
+ 0.493834 2 3 cbr 210 ------- 0 1.0 5.0 77 78
- 0.493834 2 3 cbr 210 ------- 0 1.0 5.0 77 78
r 0.495168 2 3 cbr 210 ------- 0 1.0 5.0 76 77
+ 0.495168 3 5 cbr 210 ------- 0 1.0 5.0 76 77
- 0.495168 3 5 cbr 210 ------- 0 1.0 5.0 76 77
+ 0.49625 1 2 cbr 210 ------- 0 1.0 5.0 79 80
- 0.49625 1 2 cbr 210 ------- 0 1.0 5.0 79 80
r 0.496502 3 5 cbr 210 ------- 0 1.0 5.0 75 76
r 0.497584 1 2 cbr 210 ------- 0 1.0 5.0 78 79
+ 0.497584 2 3 cbr 210 ------- 0 1.0 5.0 78 79
- 0.497584 2 3 cbr 210 ------- 0 1.0 5.0 78 79
r 0.498918 2 3 cbr 210 ------- 0 1.0 5.0 77 78
+ 0.498918 3 5 cbr 210 ------- 0 1.0 5.0 77 78
- 0.498918 3 5 cbr 210 ------- 0 1.0 5.0 77 78
+ 0.5 1 2 cbr 210 ------- 0 1.0 5.0 80 81
- 0.5 1 2 cbr 210 ------- 0 1.0 5.0 80 81
r 0.500252 3 5 cbr 210 ------- 0 1.0 5.0 76 77
r 0.501334 1 2 cbr 210 ------- 0 1.0 5.0 79 80
+ 0.501334 2 3 cbr 210 ------- 0 1.0 5.0 79 80
- 0.501334 2 3 cbr 210 ------- 0 1.0 5.0 79 80
r 0.502668 2 3 cbr 210 ------- 0 1.0 5.0 78 79
+ 0.502668 3 5 cbr 210 ------- 0 1.0 5.0 78 79
- 0.502668 3 5 cbr 210 ------- 0 1.0 5.0 78 79
+ 0.50375 1 2 cbr 210 ------- 0 1.0 5.0 81 82
- 0.50375 1 2 cbr 210 ------- 0 1.0 5.0 81 82
r 0.504002 3 5 cbr 210 ------- 0 1.0 5.0 77 78
r 0.505084 1 2 cbr 210 ------- 0 1.0 5.0 80 81
+ 0.505084 2 3 cbr 210 ------- 0 1.0 5.0 80 81
- 0.505084 2 3 cbr 210 ------- 0 1.0 5.0 80 81
r 0.506418 2 3 cbr 210 ------- 0 1.0 5.0 79 80
+ 0.506418 3 5 cbr 210 ------- 0 1.0 5.0 79 80
- 0.506418 3 5 cbr 210 ------- 0 1.0 5.0 79 80
+ 0.5075 1 2 cbr 210 ------- 0 1.0 5.0 82 83
- 0.5075 1 2 cbr 210 ------- 0 1.0 5.0 82 83
r 0.507752 3 5 cbr 210 ------- 0 1.0 5.0 78 79
r 0.508834 1 2 cbr 210 ------- 0 1.0 5.0 81 82
+ 0.508834 2 3 cbr 210 ------- 0 1.0 5.0 81 82
- 0.508834 2 3 cbr 210 ------- 0 1.0 5.0 81 82
r 0.510168 2 3 cbr 210 ------- 0 1.0 5.0 80 81
+ 0.510168 3 5 cbr 210 ------- 0 1.0 5.0 80 81
- 0.510168 3 5 cbr 210 ------- 0 1.0 5.0 80 81