V -t * -v 1.0a5 -a 0
A -t * -n 1 -p 0 -o 0x7fffffff -c 30 -a 1
A -t * -h 1 -m 1073741823 -s 0
n -t * -a 0 -s 0 -S UP -v circle -c black -i black
n -t * -a 1 -s 1 -S UP -v circle -c black -i black
n -t * -a 2 -s 2 -S UP -v circle -c black -i black
n -t * -a 3 -s 3 -S UP -v circle -c black -i black
l -t * -s 0 -d 1 -S UP -r 5000000 -D 0.002 -c black -o right
l -t * -s 1 -d 2 -S UP -r 500000 -D 0.10000000000000001 -c black -o right
l -t * -s 2 -d 3 -S UP -r 5000000 -D 0.002 -c black -o right
a -t 0 -s 0 -d 3 -n tcp
v -t 0 -e monitor_agent 0 tcp
+ -t 0.2 -s 0 -d 1 -p tcp -e 40 -c 0 -i 0 -a 0 -x {0.0 3.0 0 ------- null}
- -t 0.2 -s 0 -d 1 -p tcp -e 40 -c 0 -i 0 -a 0 -x {0.0 3.0 0 ------- null}
h -t 0.2 -s 0 -d 1 -p tcp -e 40 -c 0 -i 0 -a 0 -x {0.0 3.0 -1 ------- null}
r -t 0.202064 -s 0 -d 1 -p tcp -e 40 -c 0 -i 0 -a 0 -x {0.0 3.0 0 ------- null}
+ -t 0.202064 -s 1 -d 2 -p tcp -e 40 -c 0 -i 0 -a 0 -x {0.0 3.0 0 ------- null}
- -t 0.202064 -s 1 -d 2 -p tcp -e 40 -c 0 -i 0 -a 0 -x {0.0 3.0 0 ------- null}
h -t 0.202064 -s 1 -d 2 -p tcp -e 40 -c 0 -i 0 -a 0 -x {0.0 3.0 -1 ------- null}
r -t 0.302704 -s 1 -d 2 -p tcp -e 40 -c 0 -i 0 -a 0 -x {0.0 3.0 0 ------- null}
+ -t 0.302704 -s 2 -d 3 -p tcp -e 40 -c 0 -i 0 -a 0 -x {0.0 3.0 0 ------- null}
- -t 0.302704 -s 2 -d 3 -p tcp -e 40 -c 0 -i 0 -a 0 -x {0.0 3.0 0 ------- null}
h -t 0.302704 -s 2 -d 3 -p tcp -e 40 -c 0 -i 0 -a 0 -x {0.0 3.0 -1 ------- null}
r -t 0.304768 -s 2 -d 3 -p tcp -e 40 -c 0 -i 0 -a 0 -x {0.0 3.0 0 ------- null}
+ -t 0.304768 -s 3 -d 2 -p ack -e 40 -c 0 -i 1 -a 0 -x {3.0 0.0 0 ------- null}
- -t 0.304768 -s 3 -d 2 -p ack -e 40 -c 0 -i 1 -a 0 -x {3.0 0.0 0 ------- null}
h -t 0.304768 -s 3 -d 2 -p ack -e 40 -c 0 -i 1 -a 0 -x {3.0 0.0 -1 ------- null}
r -t 0.306832 -s 3 -d 2 -p ack -e 40 -c 0 -i 1 -a 0 -x {3.0 0.0 0 ------- null}
+ -t 0.306832 -s 2 -d 1 -p ack -e 40 -c 0 -i 1 -a 0 -x {3.0 0.0 0 ------- null}
- -t 0.306832 -s 2 -d 1 -p ack -e 40 -c 0 -i 1 -a 0 -x {3.0 0.0 0 ------- null}
h -t 0.306832 -s 2 -d 1 -p ack -e 40 -c 0 -i 1 -a 0 -x {3.0 0.0 -1 ------- null}
r -t 0.407472 -s 2 -d 1 -p ack -e 40 -c 0 -i 1 -a 0 -x {3.0 0.0 0 ------- null}
+ -t 0.407472 -s 1 -d 0 -p ack -e 40 -c 0 -i 1 -a 0 -x {3.0 0.0 0 ------- null}
- -t 0.407472 -s 1 -d 0 -p ack -e 40 -c 0 -i 1 -a 0 -x {3.0 0.0 0 ------- null}
h -t 0.407472 -s 1 -d 0 -p ack -e 40 -c 0 -i 1 -a 0 -x {3.0 0.0 -1 ------- null}
r -t 0.409536 -s 1 -d 0 -p ack -e 40 -c 0 -i 1 -a 0 -x {3.0 0.0 0 ------- null}
f -t 0.409536 -s 0 -d 3 -n cwnd_ -a tcp -v 2 -T v
+ -t 0.409536 -s 0 -d 1 -p tcp -e 1540 -c 0 -i 2 -a 0 -x {0.0 3.0 1 ------- null}
- -t 0.409536 -s 0 -d 1 -p tcp -e 1540 -c 0 -i 2 -a 0 -x {0.0 3.0 1 ------- null}
h -t 0.409536 -s 0 -d 1 -p tcp -e 1540 -c 0 -i 2 -a 0 -x {0.0 3.0 -1 ------- null}
+ -t 0.409536 -s 0 -d 1 -p tcp -e 1540 -c 0 -i 3 -a 0 -x {0.0 3.0 2 ------- null}
- -t 0.412 -s 0 -d 1 -p tcp -e 1540 -c 0 -i 3 -a 0 -x {0.0 3.0 2 ------- null}
h -t 0.412 -s 0 -d 1 -p tcp -e 1540 -c 0 -i 3 -a 0 -x {0.0 3.0 -1 ------- null}
r -t 0.414 -s 0 -d 1 -p tcp -e 1540 -c 0 -i 2 -a 0 -x {0.0 3.0 1 ------- null}
+ -t 0.414 -s 1 -d 2 -p tcp -e 1540 -c 0 -i 2 -a 0 -x {0.0 3.0 1 ------- null}
- -t 0.414 -s 1 -d 2 -p tcp -e 1540 -c 0 -i 2 -a 0 -x {0.0 3.0 1 ------- null}
h -t 0.414 -s 1 -d 2 -p tcp -e 1540 -c 0 -i 2 -a 0 -x {0.0 3.0 -1 ------- null}
r -t 0.416464 -s 0 -d 1 -p tcp -e 1540 -c 0 -i 3 -a 0 -x {0.0 3.0 2 ------- null}
+ -t 0.416464 -s 1 -d 2 -p tcp -e 1540 -c 0 -i 3 -a 0 -x {0.0 3.0 2 ------- null}
- -t 0.43864 -s 1 -d 2 -p tcp -e 1540 -c 0 -i 3 -a 0 -x {0.0 3.0 2 ------- null}
h -t 0.43864 -s 1 -d 2 -p tcp -e 1540 -c 0 -i 3 -a 0 -x {0.0 3.0 -1 ------- null}
r -t 0.53864 -s 1 -d 2 -p tcp -e 1540 -c 0 -i 2 -a 0 -x {0.0 3.0 1 ------- null}
+ -t 0.53864 -s 2 -d 3 -p tcp -e 1540 -c 0 -i 2 -a 0 -x {0.0 3.0 1 ------- null}
- -t 0.53864 -s 2 -d 3 -p tcp -e 1540 -c 0 -i 2 -a 0 -x {0.0 3.0 1 ------- null}
h -t 0.53864 -s 2 -d 3 -p tcp -e 1540 -c 0 -i 2 -a 0 -x {0.0 3.0 -1 ------- null}
r -t 0.543104 -s 2 -d 3 -p tcp -e 1540 -c 0 -i 2 -a 0 -x {0.0 3.0 1 ------- null}
+ -t 0.543104 -s 3 -d 2 -p ack -e 40 -c 0 -i 4 -a 0 -x {3.0 0.0 1 ------- null}
- -t 0.543104 -s 3 -d 2 -p ack -e 40 -c 0 -i 4 -a 0 -x {3.0 0.0 1 ------- null}
h -t 0.543104 -s 3 -d 2 -p ack -e 40 -c 0 -i 4 -a 0 -x {3.0 0.0 -1 ------- null}
r -t 0.545168 -s 3 -d 2 -p ack -e 40 -c 0 -i 4 -a 0 -x {3.0 0.0 1 ------- null}
+ -t 0.545168 -s 2 -d 1 -p ack -e 40 -c 0 -i 4 -a 0 -x {3.0 0.0 1 ------- null}
- -t 0.545168 -s 2 -d 1 -p ack -e 40 -c 0 -i 4 -a 0 -x {3.0 0.0 1 ------- null}
h -t 0.545168 -s 2 -d 1 -p ack -e 40 -c 0 -i 4 -a 0 -x {3.0 0.0 -1 ------- null}
r -t 0.56328 -s 1 -d 2 -p tcp -e 1540 -c 0 -i 3 -a 0 -x {0.0 3.0 2 ------- null}
+ -t 0.56328 -s 2 -d 3 -p tcp -e 1540 -c 0 -i 3 -a 0 -x {0.0 3.0 2 ------- null}
- -t 0.56328 -s 2 -d 3 -p tcp -e 1540 -c 0 -i 3 -a 0 -x {0.0 3.0 2 ------- null}
h -t 0.56328 -s 2 -d 3 -p tcp -e 1540 -c 0 -i 3 -a 0 -x {0.0 3.0 -1 ------- null}
r -t 0.567744 -s 2 -d 3 -p tcp -e 1540 -c 0 -i 3 -a 0 -x {0.0 3.0 2 ------- null}
+ -t 0.567744 -s 3 -d 2 -p ack -e 40 -c 0 -i 5 -a 0 -x {3.0 0.0 2 ------- null}
- -t 0.567744 -s 3 -d 2 -p ack -e 40 -c 0 -i 5 -a 0 -x {3.0 0.0 2 ------- null}
h -t 0.567744 -s 3 -d 2 -p ack -e 40 -c 0 -i 5 -a 0 -x {3.0 0.0 -1 ------- null}
r -t 0.569808 -s 3 -d 2 -p ack -e 40 -c 0 -i 5 -a 0 -x {3.0 0.0 2 ------- null}
+ -t 0.569808 -s 2 -d 1 -p ack -e 40 -c 0 -i 5 -a 0 -x {3.0 0.0 2 ------- null}
- -t 0.569808 -s 2 -d 1 -p ack -e 40 -c 0 -i 5 -a 0 -x {3.0 0.0 2 ------- null}
h -t 0.569808 -s 2 -d 1 -p ack -e 40 -c 0 -i 5 -a 0 -x {3.0 0.0 -1 ------- null}
r -t 0.645808 -s 2 -d 1 -p ack -e 40 -c 0 -i 4 -a 0 -x {3.0 0.0 1 ------- null}
+ -t 0.645808 -s 1 -d 0 -p ack -e 40 -c 0 -i 4 -a 0 -x {3.0 0.0 1 ------- null}
- -t 0.645808 -s 1 -d 0 -p ack -e 40 -c 0 -i 4 -a 0 -x {3.0 0.0 1 ------- null}
h -t 0.645808 -s 1 -d 0 -p ack -e 40 -c 0 -i 4 -a 0 -x {3.0 0.0 -1 ------- null}
r -t 0.647872 -s 1 -d 0 -p ack -e 40 -c 0 -i 4 -a 0 -x {3.0 0.0 1 ------- null}
f -t 0.647872 -s 0 -d 3 -n cwnd_ -a tcp -v 3 -o 2 -T v
+ -t 0.647872 -s 0 -d 1 -p tcp -e 1540 -c 0 -i 6 -a 0 -x {0.0 3.0 3 ------- null}
- -t 0.647872 -s 0 -d 1 -p tcp -e 1540 -c 0 -i 6 -a 0 -x {0.0 3.0 3 ------- null}
h -t 0.647872 -s 0 -d 1 -p tcp -e 1540 -c 0 -i 6 -a 0 -x {0.0 3.0 -1 ------- null}
+ -t 0.647872 -s 0 -d 1 -p tcp -e 1540 -c 0 -i 7 -a 0 -x {0.0 3.0 4 ------- null}
- -t 0.650336 -s 0 -d 1 -p tcp -e 1540 -c 0 -i 7 -a 0 -x {0.0 3.0 4 ------- null}
h -t 0.650336 -s 0 -d 1 -p tcp -e 1540 -c 0 -i 7 -a 0 -x {0.0 3.0 -1 ------- null}
r -t 0.652336 -s 0 -d 1 -p tcp -e 1540 -c 0 -i 6 -a 0 -x {0.0 3.0 3 ------- null}
+ -t 0.652336 -s 1 -d 2 -p tcp -e 1540 -c 0 -i 6 -a 0 -x {0.0 3.0 3 ------- null}
- -t 0.652336 -s 1 -d 2 -p tcp -e 1540 -c 0 -i 6 -a 0 -x {0.0 3.0 3 ------- null}
h -t 0.652336 -s 1 -d 2 -p tcp -e 1540 -c 0 -i 6 -a 0 -x {0.0 3.0 -1 ------- null}
r -t 0.6548 -s 0 -d 1 -p tcp -e 1540 -c 0 -i 7 -a 0 -x {0.0 3.0 4 ------- null}
+ -t 0.6548 -s 1 -d 2 -p tcp -e 1540 -c 0 -i 7 -a 0 -x {0.0 3.0 4 ------- null}
r -t 0.670448 -s 2 -d 1 -p ack -e 40 -c 0 -i 5 -a 0 -x {3.0 0.0 2 ------- null}
+ -t 0.670448 -s 1 -d 0 -p ack -e 40 -c 0 -i 5 -a 0 -x {3.0 0.0 2 ------- null}
- -t 0.670448 -s 1 -d 0 -p ack -e 40 -c 0 -i 5 -a 0 -x {3.0 0.0 2 ------- null}
h -t 0.670448 -s 1 -d 0 -p ack -e 40 -c 0 -i 5 -a 0 -x {3.0 0.0 -1 ------- null}
r -t 0.672512 -s 1 -d 0 -p ack -e 40 -c 0 -i 5 -a 0 -x {3.0 0.0 2 ------- null}
f -t 0.672512 -s 0 -d 3 -n cwnd_ -a tcp -v 4 -o 3 -T v
+ -t 0.672512 -s 0 -d 1 -p tcp -e 1540 -c 0 -i 8 -a 0 -x {0.0 3.0 5 ------- null}
- -t 0.672512 -s 0 -d 1 -p tcp -e 1540 -c 0 -i 8 -a 0 -x {0.0 3.0 5 ------- null}
h -t 0.672512 -s 0 -d 1 -p tcp -e 1540 -c 0 -i 8 -a 0 -x {0.0 3.0 -1 ------- null}
+ -t 0.672512 -s 0 -d 1 -p tcp -e 1540 -c 0 -i 9 -a 0 -x {0.0 3.0 6 ------- null}
- -t 0.674976 -s 0 -d 1 -p tcp -e 1540 -c 0 -i 9 -a 0 -x {0.0 3.0 6 ------- null}
h -t 0.674976 -s 0 -d 1 -p tcp -e 1540 -c 0 -i 9 -a 0 -x {0.0 3.0 -1 ------- null}
- -t 0.676976 -s 1 -d 2 -p tcp -e 1540 -c 0 -i 7 -a 0 -x {0.0 3.0 4 ------- null}
h -t 0.676976 -s 1 -d 2 -p tcp -e 1540 -c 0 -i 7 -a 0 -x {0.0 3.0 -1 ------- null}
r -t 0.676976 -s 0 -d 1 -p tcp -e 1540 -c 0 -i 8 -a 0 -x {0.0 3.0 5 ------- null}
+ -t 0.676976 -s 1 -d 2 -p tcp -e 1540 -c 0 -i 8 -a 0 -x {0.0 3.0 5 ------- null}
r -t 0.67944 -s 0 -d 1 -p tcp -e 1540 -c 0 -i 9 -a 0 -x {0.0 3.0 6 ------- null}
+ -t 0.67944 -s 1 -d 2 -p tcp -e 1540 -c 0 -i 9 -a 0 -x {0.0 3.0 6 ------- null}
- -t 0.701616 -s 1 -d 2 -p tcp -e 1540 -c 0 -i 8 -a 0 -x {0.0 3.0 5 ------- null}
h -t 0.701616 -s 1 -d 2 -p tcp -e 1540 -c 0 -i 8 -a 0 -x {0.0 3.0 -1 ------- null}
- -t 0.726256 -s 1 -d 2 -p tcp -e 1540 -c 0 -i 9 -a 0 -x {0.0 3.0 6 ------- null}
h -t 0.726256 -s 1 -d 2 -p tcp -e 1540 -c 0 -i 9 -a 0 -x {0.0 3.0 -1 ------- null}
r -t 0.776976 -s 1 -d 2 -p tcp -e 1540 -c 0 -i 6 -a 0 -x {0.0 3.0 3 ------- null}
+ -t 0.776976 -s 2 -d 3 -p tcp -e 1540 -c 0 -i 6 -a 0 -x {0.0 3.0 3 ------- null}
- -t 0.776976 -s 2 -d 3 -p tcp -e 1540 -c 0 -i 6 -a 0 -x {0.0 3.0 3 ------- null}
h -t 0.776976 -s 2 -d 3 -p tcp -e 1540 -c 0 -i 6 -a 0 -x {0.0 3.0 -1 ------- null}
r -t 0.78144 -s 2 -d 3 -p tcp -e 1540 -c 0 -i 6 -a 0 -x {0.0 3.0 3 ------- null}
+ -t 0.78144 -s 3 -d 2 -p ack -e 40 -c 0 -i 10 -a 0 -x {3.0 0.0 3 ------- null}
- -t 0.78144 -s 3 -d 2 -p ack -e 40 -c 0 -i 10 -a 0 -x {3.0 0.0 3 ------- null}
h -t 0.78144 -s 3 -d 2 -p ack -e 40 -c 0 -i 10 -a 0 -x {3.0 0.0 -1 ------- null}
r -t 0.783504 -s 3 -d 2 -p ack -e 40 -c 0 -i 10 -a 0 -x {3.0 0.0 3 ------- null}
+ -t 0.783504 -s 2 -d 1 -p ack -e 40 -c 0 -i 10 -a 0 -x {3.0 0.0 3 ------- null}
- -t 0.783504 -s 2 -d 1 -p ack -e 40 -c 0 -i 10 -a 0 -x {3.0 0.0 3 ------- null}
h -t 0.783504 -s 2 -d 1 -p ack -e 40 -c 0 -i 10 -a 0 -x {3.0 0.0 -1 ------- null}
r -t 0.801616 -s 1 -d 2 -p tcp -e 1540 -c 0 -i 7 -a 0 -x {0.0 3.0 4 ------- null}
+ -t 0.801616 -s 2 -d 3 -p tcp -e 1540 -c 0 -i 7 -a 0 -x {0.0 3.0 4 ------- null}
- -t 0.801616 -s 2 -d 3 -p tcp -e 1540 -c 0 -i 7 -a 0 -x {0.0 3.0 4 ------- null}
h -t 0.801616 -s 2 -d 3 -p tcp -e 1540 -c 0 -i 7 -a 0 -x {0.0 3.0 -1 ------- null}
r -t 0.80608 -s 2 -d 3 -p tcp -e 1540 -c 0 -i 7 -a 0 -x {0.0 3.0 4 ------- null}
+ -t 0.80608 -s 3 -d 2 -p ack -e 40 -c 0 -i 11 -a 0 -x {3.0 0.0 4 ------- null}
- -t 0.80608 -s 3 -d 2 -p ack -e 40 -c 0 -i 11 -a 0 -x {3.0 0.0 4 ------- null}
h -t 0.80608 -s 3 -d 2 -p ack -e 40 -c 0 -i 11 -a 0 -x {3.0 0.0 -1 ------- null}
r -t 0.808144 -s 3 -d 2 -p ack -e 40 -c 0 -i 11 -a 0 -x {3.0 0.0 4 ------- null}
+ -t 0.808144 -s 2 -d 1 -p ack -e 40 -c 0 -i 11 -a 0 -x {3.0 0.0 4 ------- null}
- -t 0.808144 -s 2 -d 1 -p ack -e 40 -c 0 -i 11 -a 0 -x {3.0 0.0 4 ------- null}
h -t 0.808144 -s 2 -d 1 -p ack -e 40 -c 0 -i 11 -a 0 -x {3.0 0.0 -1 ------- null}
r -t 0.826256 -s 1 -d 2 -p tcp -e 1540 -c 0 -i 8 -a 0 -x {0.0 3.0 5 ------- null}
+ -t 0.826256 -s 2 -d 3 -p tcp -e 1540 -c 0 -i 8 -a 0 -x {0.0 3.0 5 ------- null}
- -t 0.826256 -s 2 -d 3 -p tcp -e 1540 -c 0 -i 8 -a 0 -x {0.0 3.0 5 ------- null}
h -t 0.826256 -s 2 -d 3 -p tcp -e 1540 -c 0 -i 8 -a 0 -x {0.0 3.0 -1 ------- null}
r -t 0.83072 -s 2 -d 3 -p tcp -e 1540 -c 0 -i 8 -a 0 -x {0.0 3.0 5 ------- null}
+ -t 0.83072 -s 3 -d 2 -p ack -e 40 -c 0 -i 12 -a 0 -x {3.0 0.0 5 ------- null}
- -t 0.83072 -s 3 -d 2 -p ack -e 40 -c 0 -i 12 -a 0 -x {3.0 0.0 5 ------- null}
h -t 0.83072 -s 3 -d 2 -p ack -e 40 -c 0 -i 12 -a 0 -x {3.0 0.0 -1 ------- null}
r -t 0.832784 -s 3 -d 2 -p ack -e 40 -c 0 -i 12 -a 0 -x {3.0 0.0 5 ------- null}
+ -t 0.832784 -s 2 -d 1 -p ack -e 40 -c 0 -i 12 -a 0 -x {3.0 0.0 5 ------- null}
- -t 0.832784 -s 2 -d 1 -p ack -e 40 -c 0 -i 12 -a 0 -x {3.0 0.0 5 ------- null}
h -t 0.832784 -s 2 -d 1 -p ack -e 40 -c 0 -i 12 -a 0 -x {3.0 0.0 -1 ------- null}
r -t 0.850896 -s 1 -d 2 -p tcp -e 1540 -c 0 -i 9 -a 0 -x {0.0 3.0 6 ------- null}
+ -t 0.850896 -s 2 -d 3 -p tcp -e 1540 -c 0 -i 9 -a 0 -x {0.0 3.0 6 ------- null}
- -t 0.850896 -s 2 -d 3 -p tcp -e 1540 -c 0 -i 9 -a 0 -x {0.0 3.0 6 ------- null}
h -t 0.850896 -s 2 -d 3 -p tcp -e 1540 -c 0 -i 9 -a 0 -x {0.0 3.0 -1 ------- null}
r -t 0.85536 -s 2 -d 3 -p tcp -e 1540 -c 0 -i 9 -a 0 -x {0.0 3.0 6 ------- null}
+ -t 0.85536 -s 3 -d 2 -p ack -e 40 -c 0 -i 13 -a 0 -x {3.0 0.0 6 ------- null}
- -t 0.85536 -s 3 -d 2 -p ack -e 40 -c 0 -i 13 -a 0 -x {3.0 0.0 6 ------- null}
h -t 0.85536 -s 3 -d 2 -p ack -e 40 -c 0 -i 13 -a 0 -x {3.0 0.0 -1 ------- null}
r -t 0.857424 -s 3 -d 2 -p ack -e 40 -c 0 -i 13 -a 0 -x {3.0 0.0 6 ------- null}
+ -t 0.857424 -s 2 -d 1 -p ack -e 40 -c 0 -i 13 -a 0 -x {3.0 0.0 6 ------- null}
- -t 0.857424 -s 2 -d 1 -p ack -e 40 -c 0 -i 13 -a 0 -x {3.0 0.0 6 ------- null}
h -t 0.857424 -s 2 -d 1 -p ack -e 40 -c 0 -i 13 -a 0 -x {3.0 0.0 -1 ------- null}
r -t 0.884144 -s 2 -d 1 -p ack -e 40 -c 0 -i 10 -a 0 -x {3.0 0.0 3 ------- null}
+ -t 0.884144 -s 1 -d 0 -p ack -e 40 -c 0 -i 10 -a 0 -x {3.0 0.0 3 ------- null}
- -t 0.884144 -s 1 -d 0 -p ack -e 40 -c 0 -i 10 -a 0 -x {3.0 0.0 3 ------- null}
h -t 0.884144 -s 1 -d 0 -p ack -e 40 -c 0 -i 10 -a 0 -x {3.0 0.0 -1 ------- null}
r -t 0.886208 -s 1 -d 0 -p ack -e 40 -c 0 -i 10 -a 0 -x {3.0 0.0 3 ------- null}
f -t 0.886208 -s 0 -d 3 -n cwnd_ -a tcp -v 5 -o 4 -T v
+ -t 0.886208 -s 0 -d 1 -p tcp -e 1540 -c 0 -i 14 -a 0 -x {0.0 3.0 7 ------- null}
- -t 0.886208 -s 0 -d 1 -p tcp -e 1540 -c 0 -i 14 -a 0 -x {0.0 3.0 7 ------- null}
h -t 0.886208 -s 0 -d 1 -p tcp -e 1540 -c 0 -i 14 -a 0 -x {0.0 3.0 -1 ------- null}
+ -t 0.886208 -s 0 -d 1 -p tcp -e 1540 -c 0 -i 15 -a 0 -x {0.0 3.0 8 ------- null}
- -t 0.888672 -s 0 -d 1 -p tcp -e 1540 -c 0 -i 15 -a 0 -x {0.0 3.0 8 ------- null}
h -t 0.888672 -s 0 -d 1 -p tcp -e 1540 -c 0 -i 15 -a 0 -x {0.0 3.0 -1 ------- null}
r -t 0.890672 -s 0 -d 1 -p tcp -e 1540 -c 0 -i 14 -a 0 -x {0.0 3.0 7 ------- null}
+ -t 0.890672 -s 1 -d 2 -p tcp -e 1540 -c 0 -i 14 -a 0 -x {0.0 3.0 7 ------- null}
- -t 0.890672 -s 1 -d 2 -p tcp -e 1540 -c 0 -i 14 -a 0 -x {0.0 3.0 7 ------- null}
h -t 0.890672 -s 1 -d 2 -p tcp -e 1540 -c 0 -i 14 -a 0 -x {0.0 3.0 -1 ------- null}
r -t 0.893136 -s 0 -d 1 -p tcp -e 1540 -c 0 -i 15 -a 0 -x {0.0 3.0 8 ------- null}
+ -t 0.893136 -s 1 -d 2 -p tcp -e 1540 -c 0 -i 15 -a 0 -x {0.0 3.0 8 ------- null}
r -t 0.908784 -s 2 -d 1 -p ack -e 40 -c 0 -i 11 -a 0 -x {3.0 0.0 4 ------- null}
+ -t 0.908784 -s 1 -d 0 -p ack -e 40 -c 0 -i 11 -a 0 -x {3.0 0.0 4 ------- null}
- -t 0.908784 -s 1 -d 0 -p ack -e 40 -c 0 -i 11 -a 0 -x {3.0 0.0 4 ------- null}
h -t 0.908784 -s 1 -d 0 -p ack -e 40 -c 0 -i 11 -a 0 -x {3.0 0.0 -1 ------- null}
r -t 0.910848 -s 1 -d 0 -p ack -e 40 -c 0 -i 11 -a 0 -x {3.0 0.0 4 ------- null}
f -t 0.910848 -s 0 -d 3 -n cwnd_ -a tcp -v 6 -o 5 -T v
+ -t 0.910848 -s 0 -d 1 -p tcp -e 1540 -c 0 -i 16 -a 0 -x {0.0 3.0 9 ------- null}
- -t 0.910848 -s 0 -d 1 -p tcp -e 1540 -c 0 -i 16 -a 0 -x {0.0 3.0 9 ------- null}
h -t 0.910848 -s 0 -d 1 -p tcp -e 1540 -c 0 -i 16 -a 0 -x {0.0 3.0 -1 ------- null}
+ -t 0.910848 -s 0 -d 1 -p tcp -e 1540 -c 0 -i 17 -a 0 -x {0.0 3.0 10 ------- null}
- -t 0.913312 -s 0 -d 1 -p tcp -e 1540 -c 0 -i 17 -a 0 -x {0.0 3.0 10 ------- null}
h -t 0.913312 -s 0 -d 1 -p tcp -e 1540 -c 0 -i 17 -a 0 -x {0.0 3.0 -1 ------- null}
- -t 0.915312 -s 1 -d 2 -p tcp -e 1540 -c 0 -i 15 -a 0 -x {0.0 3.0 8 ------- null}
h -t 0.915312 -s 1 -d 2 -p tcp -e 1540 -c 0 -i 15 -a 0 -x {0.0 3.0 -1 ------- null}
r -t 0.915312 -s 0 -d 1 -p tcp -e 1540 -c 0 -i 16 -a 0 -x {0.0 3.0 9 ------- null}
+ -t 0.915312 -s 1 -d 2 -p tcp -e 1540 -c 0 -i 16 -a 0 -x {0.0 3.0 9 ------- null}
r -t 0.917776 -s 0 -d 1 -p tcp -e 1540 -c 0 -i 17 -a 0 -x {0.0 3.0 10 ------- null}
+ -t 0.917776 -s 1 -d 2 -p tcp -e 1540 -c 0 -i 17 -a 0 -x {0.0 3.0 10 ------- null}
r -t 0.933424 -s 2 -d 1 -p ack -e 40 -c 0 -i 12 -a 0 -x {3.0 0.0 5 ------- null}
+ -t 0.933424 -s 1 -d 0 -p ack -e 40 -c 0 -i 12 -a 0 -x {3.0 0.0 5 ------- null}
- -t 0.933424 -s 1 -d 0 -p ack -e 40 -c 0 -i 12 -a 0 -x {3.0 0.0 5 ------- null}
h -t 0.933424 -s 1 -d 0 -p ack -e 40 -c 0 -i 12 -a 0 -x {3.0 0.0 -1 ------- null}
r -t 0.935488 -s 1 -d 0 -p ack -e 40 -c 0 -i 12 -a 0 -x {3.0 0.0 5 ------- null}
f -t 0.935488 -s 0 -d 3 -n cwnd_ -a tcp -v 7 -o 6 -T v
+ -t 0.935488 -s 0 -d 1 -p tcp -e 1540 -c 0 -i 18 -a 0 -x {0.0 3.0 11 ------- null}
- -t 0.935488 -s 0 -d 1 -p tcp -e 1540 -c 0 -i 18 -a 0 -x {0.0 3.0 11 ------- null}
h -t 0.935488 -s 0 -d 1 -p tcp -e 1540 -c 0 -i 18 -a 0 -x {0.0 3.0 -1 ------- null}
+ -t 0.935488 -s 0 -d 1 -p tcp -e 1540 -c 0 -i 19 -a 0 -x {0.0 3.0 12 ------- null}
- -t 0.937952 -s 0 -d 1 -p tcp -e 1540 -c 0 -i 19 -a 0 -x {0.0 3.0 12 ------- null}
h -t 0.937952 -s 0 -d 1 -p tcp -e 1540 -c 0 -i 19 -a 0 -x {0.0 3.0 -1 ------- null}
- -t 0.939952 -s 1 -d 2 -p tcp -e 1540 -c 0 -i 16 -a 0 -x {0.0 3.0 9 ------- null}
h -t 0.939952 -s 1 -d 2 -p tcp -e 1540 -c 0 -i 16 -a 0 -x {0.0 3.0 -1 ------- null}
r -t 0.939952 -s 0 -d 1 -p tcp -e 1540 -c 0 -i 18 -a 0 -x {0.0 3.0 11 ------- null}
+ -t 0.939952 -s 1 -d 2 -p tcp -e 1540 -c 0 -i 18 -a 0 -x {0.0 3.0 11 ------- null}
r -t 0.942416 -s 0 -d 1 -p tcp -e 1540 -c 0 -i 19 -a 0 -x {0.0 3.0 12 ------- null}
+ -t 0.942416 -s 1 -d 2 -p tcp -e 1540 -c 0 -i 19 -a 0 -x {0.0 3.0 12 ------- null}
r -t 0.958064 -s 2 -d 1 -p ack -e 40 -c 0 -i 13 -a 0 -x {3.0 0.0 6 ------- null}
+ -t 0.958064 -s 1 -d 0 -p ack -e 40 -c 0 -i 13 -a 0 -x {3.0 0.0 6 ------- null}
- -t 0.958064 -s 1 -d 0 -p ack -e 40 -c 0 -i 13 -a 0 -x {3.0 0.0 6 ------- null}
h -t 0.958064 -s 1 -d 0 -p ack -e 40 -c 0 -i 13 -a 0 -x {3.0 0.0 -1 ------- null}
r -t 0.960128 -s 1 -d 0 -p ack -e 40 -c 0 -i 13 -a 0 -x {3.0 0.0 6 ------- null}
f -t 0.960128 -s 0 -d 3 -n cwnd_ -a tcp -v 8 -o 7 -T v
+ -t 0.960128 -s 0 -d 1 -p tcp -e 1540 -c 0 -i 20 -a 0 -x {0.0 3.0 13 ------- null}
- -t 0.960128 -s 0 -d 1 -p tcp -e 1540 -c 0 -i 20 -a 0 -x {0.0 3.0 13 ------- null}
h -t 0.960128 -s 0 -d 1 -p tcp -e 1540 -c 0 -i 20 -a 0 -x {0.0 3.0 -1 ------- null}
+ -t 0.960128 -s 0 -d 1 -p tcp -e 1540 -c 0 -i 21 -a 0 -x {0.0 3.0 14 ------- null}
- -t 0.962592 -s 0 -d 1 -p tcp -e 1540 -c 0 -i 21 -a 0 -x {0.0 3.0 14 ------- null}
h -t 0.962592 -s 0 -d 1 -p tcp -e 1540 -c 0 -i 21 -a 0 -x {0.0 3.0 -1 ------- null}
- -t 0.964592 -s 1 -d 2 -p tcp -e 1540 -c 0 -i 17 -a 0 -x {0.0 3.0 10 ------- null}
h -t 0.964592 -s 1 -d 2 -p tcp -e 1540 -c 0 -i 17 -a 0 -x {0.0 3.0 -1 ------- null}
r -t 0.964592 -s 0 -d 1 -p tcp -e 1540 -c 0 -i 20 -a 0 -x {0.0 3.0 13 ------- null}
+ -t 0.964592 -s 1 -d 2 -p tcp -e 1540 -c 0 -i 20 -a 0 -x {0.0 3.0 13 ------- null}
r -t 0.967056 -s 0 -d 1 -p tcp -e 1540 -c 0 -i 21 -a 0 -x {0.0 3.0 14 ------- null}
+ -t 0.967056 -s 1 -d 2 -p tcp -e 1540 -c 0 -i 21 -a 0 -x {0.0 3.0 14 ------- null}
- -t 0.989232 -s 1 -d 2 -p tcp -e 1540 -c 0 -i 18 -a 0 -x {0.0 3.0 11 ------- null}
h -t 0.989232 -s 1 -d 2 -p tcp -e 1540 -c 0 -i 18 -a 0 -x {0.0 3.0 -1 ------- null}
- -t 1.013872 -s 1 -d 2 -p tcp -e 1540 -c 0 -i 19 -a 0 -x {0.0 3.0 12 ------- null}
h -t 1.013872 -s 1 -d 2 -p tcp -e 1540 -c 0 -i 19 -a 0 -x {0.0 3.0 -1 ------- null}
r -t 1.015312 -s 1 -d 2 -p tcp -e 1540 -c 0 -i 14 -a 0 -x {0.0 3.0 7 ------- null}
+ -t 1.015312 -s 2 -d 3 -p tcp -e 1540 -c 0 -i 14 -a 0 -x {0.0 3.0 7 ------- null}
- -t 1.015312 -s 2 -d 3 -p tcp -e 1540 -c 0 -i 14 -a 0 -x {0.0 3.0 7 ------- null}
h -t 1.015312 -s 2 -d 3 -p tcp -e 1540 -c 0 -i 14 -a 0 -x {0.0 3.0 -1 ------- null}
r -t 1.019776 -s 2 -d 3 -p tcp -e 1540 -c 0 -i 14 -a 0 -x {0.0 3.0 7 ------- null}
+ -t 1.019776 -s 3 -d 2 -p ack -e 40 -c 0 -i 22 -a 0 -x {3.0 0.0 7 ------- null}
- -t 1.019776 -s 3 -d 2 -p ack -e 40 -c 0 -i 22 -a 0 -x {3.0 0.0 7 ------- null}
h -t 1.019776 -s 3 -d 2 -p ack -e 40 -c 0 -i 22 -a 0 -x {3.0 0.0 -1 ------- null}
r -t 1.02184 -s 3 -d 2 -p ack -e 40 -c 0 -i 22 -a 0 -x {3.0 0.0 7 ------- null}
+ -t 1.02184 -s 2 -d 1 -p ack -e 40 -c 0 -i 22 -a 0 -x {3.0 0.0 7 ------- null}
- -t 1.02184 -s 2 -d 1 -p ack -e 40 -c 0 -i 22 -a 0 -x {3.0 0.0 7 ------- null}
h -t 1.02184 -s 2 -d 1 -p ack -e 40 -c 0 -i 22 -a 0 -x {3.0 0.0 -1 ------- null}
- -t 1.038512 -s 1 -d 2 -p tcp -e 1540 -c 0 -i 20 -a 0 -x {0.0 3.0 13 ------- null}
h -t 1.038512 -s 1 -d 2 -p tcp -e 1540 -c 0 -i 20 -a 0 -x {0.0 3.0 -1 ------- null}
r -t 1.039952 -s 1 -d 2 -p tcp -e 1540 -c 0 -i 15 -a 0 -x {0.0 3.0 8 ------- null}
+ -t 1.039952 -s 2 -d 3 -p tcp -e 1540 -c 0 -i 15 -a 0 -x {0.0 3.0 8 ------- null}
- -t 1.039952 -s 2 -d 3 -p tcp -e 1540 -c 0 -i 15 -a 0 -x {0.0 3.0 8 ------- null}
h -t 1.039952 -s 2 -d 3 -p tcp -e 1540 -c 0 -i 15 -a 0 -x {0.0 3.0 -1 ------- null}
r -t 1.044416 -s 2 -d 3 -p tcp -e 1540 -c 0 -i 15 -a 0 -x {0.0 3.0 8 ------- null}
+ -t 1.044416 -s 3 -d 2 -p ack -e 40 -c 0 -i 23 -a 0 -x {3.0 0.0 8 ------- null}
- -t 1.044416 -s 3 -d 2 -p ack -e 40 -c 0 -i 23 -a 0 -x {3.0 0.0 8 ------- null}
h -t 1.044416 -s 3 -d 2 -p ack -e 40 -c 0 -i 23 -a 0 -x {3.0 0.0 -1 ------- null}
r -t 1.04648 -s 3 -d 2 -p ack -e 40 -c 0 -i 23 -a 0 -x {3.0 0.0 8 ------- null}
+ -t 1.04648 -s 2 -d 1 -p ack -e 40 -c 0 -i 23 -a 0 -x {3.0 0.0 8 ------- null}
- -t 1.04648 -s 2 -d 1 -p ack -e 40 -c 0 -i 23 -a 0 -x {3.0 0.0 8 ------- null}
h -t 1.04648 -s 2 -d 1 -p ack -e 40 -c 0 -i 23 -a 0 -x {3.0 0.0 -1 ------- null}
- -t 1.063152 -s 1 -d 2 -p tcp -e 1540 -c 0 -i 21 -a 0 -x {0.0 3.0 14 ------- null}
h -t 1.063152 -s 1 -d 2 -p tcp -e 1540 -c 0 -i 21 -a 0 -x {0.0 3.0 -1 ------- null}
r -t 1.064592 -s 1 -d 2 -p tcp -e 1540 -c 0 -i 16 -a 0 -x {0.0 3.0 9 ------- null}
+ -t 1.064592 -s 2 -d 3 -p tcp -e 1540 -c 0 -i 16 -a 0 -x {0.0 3.0 9 ------- null}
- -t 1.064592 -s 2 -d 3 -p tcp -e 1540 -c 0 -i 16 -a 0 -x {0.0 3.0 9 ------- null}
h -t 1.064592 -s 2 -d 3 -p tcp -e 1540 -c 0 -i 16 -a 0 -x {0.0 3.0 -1 ------- null}
r -t 1.069056 -s 2 -d 3 -p tcp -e 1540 -c 0 -i 16 -a 0 -x {0.0 3.0 9 ------- null}
+ -t 1.069056 -s 3 -d 2 -p ack -e 40 -c 0 -i 24 -a 0 -x {3.0 0.0 9 ------- null}
- -t 1.069056 -s 3 -d 2 -p ack -e 40 -c 0 -i 24 -a 0 -x {3.0 0.0 9 ------- null}
h -t 1.069056 -s 3 -d 2 -p ack -e 40 -c 0 -i 24 -a 0 -x {3.0 0.0 -1 ------- null}
r -t 1.07112 -s 3 -d 2 -p ack -e 40 -c 0 -i 24 -a 0 -x {3.0 0.0 9 ------- null}
+ -t 1.07112 -s 2 -d 1 -p ack -e 40 -c 0 -i 24 -a 0 -x {3.0 0.0 9 ------- null}
- -t 1.07112 -s 2 -d 1 -p ack -e 40 -c 0 -i 24 -a 0 -x {3.0 0.0 9 ------- null}
h -t 1.07112 -s 2 -d 1 -p ack -e 40 -c 0 -i 24 -a 0 -x {3.0 0.0 -1 ------- null}
r -t 1.089232 -s 1 -d 2 -p tcp -e 1540 -c 0 -i 17 -a 0 -x {0.0 3.0 10 ------- null}
+ -t 1.089232 -s 2 -d 3 -p tcp -e 1540 -c 0 -i 17 -a 0 -x {0.0 3.0 10 ------- null}
- -t 1.089232 -s 2 -d 3 -p tcp -e 1540 -c 0 -i 17 -a 0 -x {0.0 3.0 10 ------- null}
h -t 1.089232 -s 2 -d 3 -p tcp -e 1540 -c 0 -i 17 -a 0 -x {0.0 3.0 -1 ------- null}
r -t 1.093696 -s 2 -d 3 -p tcp -e 1540 -c 0 -i 17 -a 0 -x {0.0 3.0 10 ------- null}
+ -t 1.093696 -s 3 -d 2 -p ack -e 40 -c 0 -i 25 -a 0 -x {3.0 0.0 10 ------- null}
- -t 1.093696 -s 3 -d 2 -p ack -e 40 -c 0 -i 25 -a 0 -x {3.0 0.0 10 ------- null}
h -t 1.093696 -s 3 -d 2 -p ack -e 40 -c 0 -i 25 -a 0 -x {3.0 0.0 -1 ------- null}
r -t 1.09576 -s 3 -d 2 -p ack -e 40 -c 0 -i 25 -a 0 -x {3.0 0.0 10 ------- null}
+ -t 1.09576 -s 2 -d 1 -p ack -e 40 -c 0 -i 25 -a 0 -x {3.0 0.0 10 ------- null}
- -t 1.09576 -s 2 -d 1 -p ack -e 40 -c 0 -i 25 -a 0 -x {3.0 0.0 10 ------- null}
h -t 1.09576 -s 2 -d 1 -p ack -e 40 -c 0 -i 25 -a 0 -x {3.0 0.0 -1 ------- null}
r -t 1.113872 -s 1 -d 2 -p tcp -e 1540 -c 0 -i 18 -a 0 -x {0.0 3.0 11 ------- null}
+ -t 1.113872 -s 2 -d 3 -p tcp -e 1540 -c 0 -i 18 -a 0 -x {0.0 3.0 11 ------- null}
- -t 1.113872 -s 2 -d 3 -p tcp -e 1540 -c 0 -i 18 -a 0 -x {0.0 3.0 11 ------- null}
h -t 1.113872 -s 2 -d 3 -p tcp -e 1540 -c 0 -i 18 -a 0 -x {0.0 3.0 -1 ------- null}
r -t 1.118336 -s 2 -d 3 -p tcp -e 1540 -c 0 -i 18 -a 0 -x {0.0 3.0 11 ------- null}
+ -t 1.118336 -s 3 -d 2 -p ack -e 40 -c 0 -i 26 -a 0 -x {3.0 0.0 11 ------- null}
- -t 1.118336 -s 3 -d 2 -p ack -e 40 -c 0 -i 26 -a 0 -x {3.0 0.0 11 ------- null}
h -t 1.118336 -s 3 -d 2 -p ack -e 40 -c 0 -i 26 -a 0 -x {3.0 0.0 -1 ------- null}
r -t 1.1204 -s 3 -d 2 -p ack -e 40 -c 0 -i 26 -a 0 -x {3.0 0.0 11 ------- null}
+ -t 1.1204 -s 2 -d 1 -p ack -e 40 -c 0 -i 26 -a 0 -x {3.0 0.0 11 ------- null}
- -t 1.1204 -s 2 -d 1 -p ack -e 40 -c 0 -i 26 -a 0 -x {3.0 0.0 11 ------- null}
h -t 1.1204 -s 2 -d 1 -p ack -e 40 -c 0 -i 26 -a 0 -x {3.0 0.0 -1 ------- null}
r -t 1.12248 -s 2 -d 1 -p ack -e 40 -c 0 -i 22 -a 0 -x {3.0 0.0 7 ------- null}
+ -t 1.12248 -s 1 -d 0 -p ack -e 40 -c 0 -i 22 -a 0 -x {3.0 0.0 7 ------- null}
- -t 1.12248 -s 1 -d 0 -p ack -e 40 -c 0 -i 22 -a 0 -x {3.0 0.0 7 ------- null}
h -t 1.12248 -s 1 -d 0 -p ack -e 40 -c 0 -i 22 -a 0 -x {3.0 0.0 -1 ------- null}
r -t 1.124544 -s 1 -d 0 -p ack -e 40 -c 0 -i 22 -a 0 -x {3.0 0.0 7 ------- null}
f -t 1.124544 -s 0 -d 3 -n cwnd_ -a tcp -v 9 -o 8 -T v
+ -t 1.124544 -s 0 -d 1 -p tcp -e 1540 -c 0 -i 27 -a 0 -x {0.0 3.0 15 ------- null}
- -t 1.124544 -s 0 -d 1 -p tcp -e 1540 -c 0 -i 27 -a 0 -x {0.0 3.0 15 ------- null}
h -t 1.124544 -s 0 -d 1 -p tcp -e 1540 -c 0 -i 27 -a 0 -x {0.0 3.0 -1 ------- null}
+ -t 1.124544 -s 0 -d 1 -p tcp -e 1540 -c 0 -i 28 -a 0 -x {0.0 3.0 16 ------- null}
- -t 1.127008 -s 0 -d 1 -p tcp -e 1540 -c 0 -i 28 -a 0 -x {0.0 3.0 16 ------- null}
h -t 1.127008 -s 0 -d 1 -p tcp -e 1540 -c 0 -i 28 -a 0 -x {0.0 3.0 -1 ------- null}
r -t 1.129008 -s 0 -d 1 -p tcp -e 1540 -c 0 -i 27 -a 0 -x {0.0 3.0 15 ------- null}
+ -t 1.129008 -s 1 -d 2 -p tcp -e 1540 -c 0 -i 27 -a 0 -x {0.0 3.0 15 ------- null}
- -t 1.129008 -s 1 -d 2 -p tcp -e 1540 -c 0 -i 27 -a 0 -x {0.0 3.0 15 ------- null}
h -t 1.129008 -s 1 -d 2 -p tcp -e 1540 -c 0 -i 27 -a 0 -x {0.0 3.0 -1 ------- null}
r -t 1.131472 -s 0 -d 1 -p tcp -e 1540 -c 0 -i 28 -a 0 -x {0.0 3.0 16 ------- null}
+ -t 1.131472 -s 1 -d 2 -p tcp -e 1540 -c 0 -i 28 -a 0 -x {0.0 3.0 16 ------- null}
r -t 1.138512 -s 1 -d 2 -p tcp -e 1540 -c 0 -i 19 -a 0 -x {0.0 3.0 12 ------- null}
+ -t 1.138512 -s 2 -d 3 -p tcp -e 1540 -c 0 -i 19 -a 0 -x {0.0 3.0 12 ------- null}
- -t 1.138512 -s 2 -d 3 -p tcp -e 1540 -c 0 -i 19 -a 0 -x {0.0 3.0 12 ------- null}
h -t 1.138512 -s 2 -d 3 -p tcp -e 1540 -c 0 -i 19 -a 0 -x {0.0 3.0 -1 ------- null}
r -t 1.142976 -s 2 -d 3 -p tcp -e 1540 -c 0 -i 19 -a 0 -x {0.0 3.0 12 ------- null}
+ -t 1.142976 -s 3 -d 2 -p ack -e 40 -c 0 -i 29 -a 0 -x {3.0 0.0 12 ------- null}
- -t 1.142976 -s 3 -d 2 -p ack -e 40 -c 0 -i 29 -a 0 -x {3.0 0.0 12 ------- null}
h -t 1.142976 -s 3 -d 2 -p ack -e 40 -c 0 -i 29 -a 0 -x {3.0 0.0 -1 ------- null}
r -t 1.14504 -s 3 -d 2 -p ack -e 40 -c 0 -i 29 -a 0 -x {3.0 0.0 12 ------- null}
+ -t 1.14504 -s 2 -d 1 -p ack -e 40 -c 0 -i 29 -a 0 -x {3.0 0.0 12 ------- null}
- -t 1.14504 -s 2 -d 1 -p ack -e 40 -c 0 -i 29 -a 0 -x {3.0 0.0 12 ------- null}
h -t 1.14504 -s 2 -d 1 -p ack -e 40 -c 0 -i 29 -a 0 -x {3.0 0.0 -1 ------- null}
r -t 1.14712 -s 2 -d 1 -p ack -e 40 -c 0 -i 23 -a 0 -x {3.0 0.0 8 ------- null}
+ -t 1.14712 -s 1 -d 0 -p ack -e 40 -c 0 -i 23 -a 0 -x {3.0 0.0 8 ------- null}
- -t 1.14712 -s 1 -d 0 -p ack -e 40 -c 0 -i 23 -a 0 -x {3.0 0.0 8 ------- null}
h -t 1.14712 -s 1 -d 0 -p ack -e 40 -c 0 -i 23 -a 0 -x {3.0 0.0 -1 ------- null}
r -t 1.149184 -s 1 -d 0 -p ack -e 40 -c 0 -i 23 -a 0 -x {3.0 0.0 8 ------- null}
f -t 1.149184 -s 0 -d 3 -n cwnd_ -a tcp -v 10 -o 9 -T v
+ -t 1.149184 -s 0 -d 1 -p tcp -e 1540 -c 0 -i 30 -a 0 -x {0.0 3.0 17 ------- null}
- -t 1.149184 -s 0 -d 1 -p tcp -e 1540 -c 0 -i 30 -a 0 -x {0.0 3.0 17 ------- null}
h -t 1.149184 -s 0 -d 1 -p tcp -e 1540 -c 0 -i 30 -a 0 -x {0.0 3.0 -1 ------- null}
+ -t 1.149184 -s 0 -d 1 -p tcp -e 1540 -c 0 -i 31 -a 0 -x {0.0 3.0 18 ------- null}
- -t 1.151648 -s 0 -d 1 -p tcp -e 1540 -c 0 -i 31 -a 0 -x {0.0 3.0 18 ------- null}
h -t 1.151648 -s 0 -d 1 -p tcp -e 1540 -c 0 -i 31 -a 0 -x {0.0 3.0 -1 ------- null}
- -t 1.153648 -s 1 -d 2 -p tcp -e 1540 -c 0 -i 28 -a 0 -x {0.0 3.0 16 ------- null}
h -t 1.153648 -s 1 -d 2 -p tcp -e 1540 -c 0 -i 28 -a 0 -x {0.0 3.0 -1 ------- null}
r -t 1.153648 -s 0 -d 1 -p tcp -e 1540 -c 0 -i 30 -a 0 -x {0.0 3.0 17 ------- null}
+ -t 1.153648 -s 1 -d 2 -p tcp -e 1540 -c 0 -i 30 -a 0 -x {0.0 3.0 17 ------- null}
r -t 1.156112 -s 0 -d 1 -p tcp -e 1540 -c 0 -i 31 -a 0 -x {0.0 3.0 18 ------- null}
+ -t 1.156112 -s 1 -d 2 -p tcp -e 1540 -c 0 -i 31 -a 0 -x {0.0 3.0 18 ------- null}
r -t 1.163152 -s 1 -d 2 -p tcp -e 1540 -c 0 -i 20 -a 0 -x {0.0 3.0 13 ------- null}
+ -t 1.163152 -s 2 -d 3 -p tcp -e 1540 -c 0 -i 20 -a 0 -x {0.0 3.0 13 ------- null}
- -t 1.163152 -s 2 -d 3 -p tcp -e 1540 -c 0 -i 20 -a 0 -x {0.0 3.0 13 ------- null}
h -t 1.163152 -s 2 -d 3 -p tcp -e 1540 -c 0 -i 20 -a 0 -x {0.0 3.0 -1 ------- null}
r -t 1.167616 -s 2 -d 3 -p tcp -e 1540 -c 0 -i 20 -a 0 -x {0.0 3.0 13 ------- null}
+ -t 1.167616 -s 3 -d 2 -p ack -e 40 -c 0 -i 32 -a 0 -x {3.0 0.0 13 ------- null}
- -t 1.167616 -s 3 -d 2 -p ack -e 40 -c 0 -i 32 -a 0 -x {3.0 0.0 13 ------- null}
h -t 1.167616 -s 3 -d 2 -p ack -e 40 -c 0 -i 32 -a 0 -x {3.0 0.0 -1 ------- null}
r -t 1.16968 -s 3 -d 2 -p ack -e 40 -c 0 -i 32 -a 0 -x {3.0 0.0 13 ------- null}
+ -t 1.16968 -s 2 -d 1 -p ack -e 40 -c 0 -i 32 -a 0 -x {3.0 0.0 13 ------- null}
- -t 1.16968 -s 2 -d 1 -p ack -e 40 -c 0 -i 32 -a 0 -x {3.0 0.0 13 ------- null}
h -t 1.16968 -s 2 -d 1 -p ack -e 40 -c 0 -i 32 -a 0 -x {3.0 0.0 -1 ------- null}
r -t 1.17176 -s 2 -d 1 -p ack -e 40 -c 0 -i 24 -a 0 -x {3.0 0.0 9 ------- null}
+ -t 1.17176 -s 1 -d 0 -p ack -e 40 -c 0 -i 24 -a 0 -x {3.0 0.0 9 ------- null}
- -t 1.17176 -s 1 -d 0 -p ack -e 40 -c 0 -i 24 -a 0 -x {3.0 0.0 9 ------- null}
h -t 1.17176 -s 1 -d 0 -p ack -e 40 -c 0 -i 24 -a 0 -x {3.0 0.0 -1 ------- null}
r -t 1.173824 -s 1 -d 0 -p ack -e 40 -c 0 -i 24 -a 0 -x {3.0 0.0 9 ------- null}
f -t 1.173824 -s 0 -d 3 -n cwnd_ -a tcp -v 11 -o 10 -T v
+ -t 1.173824 -s 0 -d 1 -p tcp -e 1540 -c 0 -i 33 -a 0 -x {0.0 3.0 19 ------- null}
- -t 1.173824 -s 0 -d 1 -p tcp -e 1540 -c 0 -i 33 -a 0 -x {0.0 3.0 19 ------- null}
h -t 1.173824 -s 0 -d 1 -p tcp -e 1540 -c 0 -i 33 -a 0 -x {0.0 3.0 -1 ------- null}
+ -t 1.173824 -s 0 -d 1 -p tcp -e 1540 -c 0 -i 34 -a 0 -x {0.0 3.0 20 ------- null}
- -t 1.176288 -s 0 -d 1 -p tcp -e 1540 -c 0 -i 34 -a 0 -x {0.0 3.0 20 ------- null}