+ 0.2 0 1 tcp 40 ------- 0 0.0 3.0 0 0
- 0.2 0 1 tcp 40 ------- 0 0.0 3.0 0 0
r 0.202064 0 1 tcp 40 ------- 0 0.0 3.0 0 0
+ 0.202064 1 2 tcp 40 ------- 0 0.0 3.0 0 0
- 0.202064 1 2 tcp 40 ------- 0 0.0 3.0 0 0
r 0.302704 1 2 tcp 40 ------- 0 0.0 3.0 0 0
+ 0.302704 2 3 tcp 40 ------- 0 0.0 3.0 0 0
- 0.302704 2 3 tcp 40 ------- 0 0.0 3.0 0 0
r 0.304768 2 3 tcp 40 ------- 0 0.0 3.0 0 0
+ 0.304768 3 2 ack 40 ------- 0 3.0 0.0 0 1
- 0.304768 3 2 ack 40 ------- 0 3.0 0.0 0 1
r 0.306832 3 2 ack 40 ------- 0 3.0 0.0 0 1
+ 0.306832 2 1 ack 40 ------- 0 3.0 0.0 0 1
- 0.306832 2 1 ack 40 ------- 0 3.0 0.0 0 1
r 0.407472 2 1 ack 40 ------- 0 3.0 0.0 0 1
+ 0.407472 1 0 ack 40 ------- 0 3.0 0.0 0 1
- 0.407472 1 0 ack 40 ------- 0 3.0 0.0 0 1
r 0.409536 1 0 ack 40 ------- 0 3.0 0.0 0 1
+ 0.409536 0 1 tcp 1540 ------- 0 0.0 3.0 1 2
- 0.409536 0 1 tcp 1540 ------- 0 0.0 3.0 1 2
+ 0.409536 0 1 tcp 1540 ------- 0 0.0 3.0 2 3
- 0.412 0 1 tcp 1540 ------- 0 0.0 3.0 2 3
r 0.414 0 1 tcp 1540 ------- 0 0.0 3.0 1 2
+ 0.414 1 2 tcp 1540 ------- 0 0.0 3.0 1 2
- 0.414 1 2 tcp 1540 ------- 0 0.0 3.0 1 2
r 0.416464 0 1 tcp 1540 ------- 0 0.0 3.0 2 3
+ 0.416464 1 2 tcp 1540 ------- 0 0.0 3.0 2 3
- 0.43864 1 2 tcp 1540 ------- 0 0.0 3.0 2 3
r 0.53864 1 2 tcp 1540 ------- 0 0.0 3.0 1 2
+ 0.53864 2 3 tcp 1540 ------- 0 0.0 3.0 1 2
- 0.53864 2 3 tcp 1540 ------- 0 0.0 3.0 1 2
r 0.543104 2 3 tcp 1540 ------- 0 0.0 3.0 1 2
+ 0.543104 3 2 ack 40 ------- 0 3.0 0.0 1 4
- 0.543104 3 2 ack 40 ------- 0 3.0 0.0 1 4
r 0.545168 3 2 ack 40 ------- 0 3.0 0.0 1 4
+ 0.545168 2 1 ack 40 ------- 0 3.0 0.0 1 4
- 0.545168 2 1 ack 40 ------- 0 3.0 0.0 1 4
r 0.56328 1 2 tcp 1540 ------- 0 0.0 3.0 2 3
+ 0.56328 2 3 tcp 1540 ------- 0 0.0 3.0 2 3
- 0.56328 2 3 tcp 1540 ------- 0 0.0 3.0 2 3
r 0.567744 2 3 tcp 1540 ------- 0 0.0 3.0 2 3
+ 0.567744 3 2 ack 40 ------- 0 3.0 0.0 2 5
- 0.567744 3 2 ack 40 ------- 0 3.0 0.0 2 5
r 0.569808 3 2 ack 40 ------- 0 3.0 0.0 2 5
+ 0.569808 2 1 ack 40 ------- 0 3.0 0.0 2 5
- 0.569808 2 1 ack 40 ------- 0 3.0 0.0 2 5
r 0.645808 2 1 ack 40 ------- 0 3.0 0.0 1 4
+ 0.645808 1 0 ack 40 ------- 0 3.0 0.0 1 4
- 0.645808 1 0 ack 40 ------- 0 3.0 0.0 1 4
r 0.647872 1 0 ack 40 ------- 0 3.0 0.0 1 4
+ 0.647872 0 1 tcp 1540 ------- 0 0.0 3.0 3 6
- 0.647872 0 1 tcp 1540 ------- 0 0.0 3.0 3 6
+ 0.647872 0 1 tcp 1540 ------- 0 0.0 3.0 4 7
- 0.650336 0 1 tcp 1540 ------- 0 0.0 3.0 4 7
r 0.652336 0 1 tcp 1540 ------- 0 0.0 3.0 3 6
+ 0.652336 1 2 tcp 1540 ------- 0 0.0 3.0 3 6
- 0.652336 1 2 tcp 1540 ------- 0 0.0 3.0 3 6
r 0.6548 0 1 tcp 1540 ------- 0 0.0 3.0 4 7
+ 0.6548 1 2 tcp 1540 ------- 0 0.0 3.0 4 7
r 0.670448 2 1 ack 40 ------- 0 3.0 0.0 2 5
+ 0.670448 1 0 ack 40 ------- 0 3.0 0.0 2 5
- 0.670448 1 0 ack 40 ------- 0 3.0 0.0 2 5
r 0.672512 1 0 ack 40 ------- 0 3.0 0.0 2 5
+ 0.672512 0 1 tcp 1540 ------- 0 0.0 3.0 5 8
- 0.672512 0 1 tcp 1540 ------- 0 0.0 3.0 5 8
+ 0.672512 0 1 tcp 1540 ------- 0 0.0 3.0 6 9
- 0.674976 0 1 tcp 1540 ------- 0 0.0 3.0 6 9
- 0.676976 1 2 tcp 1540 ------- 0 0.0 3.0 4 7
r 0.676976 0 1 tcp 1540 ------- 0 0.0 3.0 5 8
+ 0.676976 1 2 tcp 1540 ------- 0 0.0 3.0 5 8
r 0.67944 0 1 tcp 1540 ------- 0 0.0 3.0 6 9
+ 0.67944 1 2 tcp 1540 ------- 0 0.0 3.0 6 9
- 0.701616 1 2 tcp 1540 ------- 0 0.0 3.0 5 8
- 0.726256 1 2 tcp 1540 ------- 0 0.0 3.0 6 9
r 0.776976 1 2 tcp 1540 ------- 0 0.0 3.0 3 6
+ 0.776976 2 3 tcp 1540 ------- 0 0.0 3.0 3 6
- 0.776976 2 3 tcp 1540 ------- 0 0.0 3.0 3 6
r 0.78144 2 3 tcp 1540 ------- 0 0.0 3.0 3 6
+ 0.78144 3 2 ack 40 ------- 0 3.0 0.0 3 10
- 0.78144 3 2 ack 40 ------- 0 3.0 0.0 3 10
r 0.783504 3 2 ack 40 ------- 0 3.0 0.0 3 10
+ 0.783504 2 1 ack 40 ------- 0 3.0 0.0 3 10
- 0.783504 2 1 ack 40 ------- 0 3.0 0.0 3 10
r 0.801616 1 2 tcp 1540 ------- 0 0.0 3.0 4 7
+ 0.801616 2 3 tcp 1540 ------- 0 0.0 3.0 4 7
- 0.801616 2 3 tcp 1540 ------- 0 0.0 3.0 4 7
r 0.80608 2 3 tcp 1540 ------- 0 0.0 3.0 4 7
+ 0.80608 3 2 ack 40 ------- 0 3.0 0.0 4 11
- 0.80608 3 2 ack 40 ------- 0 3.0 0.0 4 11
r 0.808144 3 2 ack 40 ------- 0 3.0 0.0 4 11
+ 0.808144 2 1 ack 40 ------- 0 3.0 0.0 4 11
- 0.808144 2 1 ack 40 ------- 0 3.0 0.0 4 11
r 0.826256 1 2 tcp 1540 ------- 0 0.0 3.0 5 8
+ 0.826256 2 3 tcp 1540 ------- 0 0.0 3.0 5 8
- 0.826256 2 3 tcp 1540 ------- 0 0.0 3.0 5 8
r 0.83072 2 3 tcp 1540 ------- 0 0.0 3.0 5 8
+ 0.83072 3 2 ack 40 ------- 0 3.0 0.0 5 12
- 0.83072 3 2 ack 40 ------- 0 3.0 0.0 5 12
r 0.832784 3 2 ack 40 ------- 0 3.0 0.0 5 12
+ 0.832784 2 1 ack 40 ------- 0 3.0 0.0 5 12
- 0.832784 2 1 ack 40 ------- 0 3.0 0.0 5 12
r 0.850896 1 2 tcp 1540 ------- 0 0.0 3.0 6 9
+ 0.850896 2 3 tcp 1540 ------- 0 0.0 3.0 6 9
- 0.850896 2 3 tcp 1540 ------- 0 0.0 3.0 6 9
r 0.85536 2 3 tcp 1540 ------- 0 0.0 3.0 6 9
+ 0.85536 3 2 ack 40 ------- 0 3.0 0.0 6 13
- 0.85536 3 2 ack 40 ------- 0 3.0 0.0 6 13
r 0.857424 3 2 ack 40 ------- 0 3.0 0.0 6 13
+ 0.857424 2 1 ack 40 ------- 0 3.0 0.0 6 13
- 0.857424 2 1 ack 40 ------- 0 3.0 0.0 6 13
r 0.884144 2 1 ack 40 ------- 0 3.0 0.0 3 10
+ 0.884144 1 0 ack 40 ------- 0 3.0 0.0 3 10
- 0.884144 1 0 ack 40 ------- 0 3.0 0.0 3 10
r 0.886208 1 0 ack 40 ------- 0 3.0 0.0 3 10
+ 0.886208 0 1 tcp 1540 ------- 0 0.0 3.0 7 14
- 0.886208 0 1 tcp 1540 ------- 0 0.0 3.0 7 14
+ 0.886208 0 1 tcp 1540 ------- 0 0.0 3.0 8 15
- 0.888672 0 1 tcp 1540 ------- 0 0.0 3.0 8 15
r 0.890672 0 1 tcp 1540 ------- 0 0.0 3.0 7 14
+ 0.890672 1 2 tcp 1540 ------- 0 0.0 3.0 7 14
- 0.890672 1 2 tcp 1540 ------- 0 0.0 3.0 7 14
r 0.893136 0 1 tcp 1540 ------- 0 0.0 3.0 8 15
+ 0.893136 1 2 tcp 1540 ------- 0 0.0 3.0 8 15
r 0.908784 2 1 ack 40 ------- 0 3.0 0.0 4 11
+ 0.908784 1 0 ack 40 ------- 0 3.0 0.0 4 11
- 0.908784 1 0 ack 40 ------- 0 3.0 0.0 4 11
r 0.910848 1 0 ack 40 ------- 0 3.0 0.0 4 11
+ 0.910848 0 1 tcp 1540 ------- 0 0.0 3.0 9 16
- 0.910848 0 1 tcp 1540 ------- 0 0.0 3.0 9 16
+ 0.910848 0 1 tcp 1540 ------- 0 0.0 3.0 10 17
- 0.913312 0 1 tcp 1540 ------- 0 0.0 3.0 10 17
- 0.915312 1 2 tcp 1540 ------- 0 0.0 3.0 8 15
r 0.915312 0 1 tcp 1540 ------- 0 0.0 3.0 9 16
+ 0.915312 1 2 tcp 1540 ------- 0 0.0 3.0 9 16
r 0.917776 0 1 tcp 1540 ------- 0 0.0 3.0 10 17
+ 0.917776 1 2 tcp 1540 ------- 0 0.0 3.0 10 17
r 0.933424 2 1 ack 40 ------- 0 3.0 0.0 5 12
+ 0.933424 1 0 ack 40 ------- 0 3.0 0.0 5 12
- 0.933424 1 0 ack 40 ------- 0 3.0 0.0 5 12
r 0.935488 1 0 ack 40 ------- 0 3.0 0.0 5 12
+ 0.935488 0 1 tcp 1540 ------- 0 0.0 3.0 11 18
- 0.935488 0 1 tcp 1540 ------- 0 0.0 3.0 11 18
+ 0.935488 0 1 tcp 1540 ------- 0 0.0 3.0 12 19
- 0.937952 0 1 tcp 1540 ------- 0 0.0 3.0 12 19
- 0.939952 1 2 tcp 1540 ------- 0 0.0 3.0 9 16
r 0.939952 0 1 tcp 1540 ------- 0 0.0 3.0 11 18
+ 0.939952 1 2 tcp 1540 ------- 0 0.0 3.0 11 18
r 0.942416 0 1 tcp 1540 ------- 0 0.0 3.0 12 19
+ 0.942416 1 2 tcp 1540 ------- 0 0.0 3.0 12 19
r 0.958064 2 1 ack 40 ------- 0 3.0 0.0 6 13
+ 0.958064 1 0 ack 40 ------- 0 3.0 0.0 6 13
- 0.958064 1 0 ack 40 ------- 0 3.0 0.0 6 13
r 0.960128 1 0 ack 40 ------- 0 3.0 0.0 6 13
+ 0.960128 0 1 tcp 1540 ------- 0 0.0 3.0 13 20
- 0.960128 0 1 tcp 1540 ------- 0 0.0 3.0 13 20
+ 0.960128 0 1 tcp 1540 ------- 0 0.0 3.0 14 21
- 0.962592 0 1 tcp 1540 ------- 0 0.0 3.0 14 21
- 0.964592 1 2 tcp 1540 ------- 0 0.0 3.0 10 17
r 0.964592 0 1 tcp 1540 ------- 0 0.0 3.0 13 20
+ 0.964592 1 2 tcp 1540 ------- 0 0.0 3.0 13 20
r 0.967056 0 1 tcp 1540 ------- 0 0.0 3.0 14 21
+ 0.967056 1 2 tcp 1540 ------- 0 0.0 3.0 14 21
- 0.989232 1 2 tcp 1540 ------- 0 0.0 3.0 11 18
- 1.013872 1 2 tcp 1540 ------- 0 0.0 3.0 12 19
r 1.015312 1 2 tcp 1540 ------- 0 0.0 3.0 7 14
+ 1.015312 2 3 tcp 1540 ------- 0 0.0 3.0 7 14
- 1.015312 2 3 tcp 1540 ------- 0 0.0 3.0 7 14
r 1.019776 2 3 tcp 1540 ------- 0 0.0 3.0 7 14
+ 1.019776 3 2 ack 40 ------- 0 3.0 0.0 7 22
- 1.019776 3 2 ack 40 ------- 0 3.0 0.0 7 22
r 1.02184 3 2 ack 40 ------- 0 3.0 0.0 7 22
+ 1.02184 2 1 ack 40 ------- 0 3.0 0.0 7 22
- 1.02184 2 1 ack 40 ------- 0 3.0 0.0 7 22
- 1.038512 1 2 tcp 1540 ------- 0 0.0 3.0 13 20
r 1.039952 1 2 tcp 1540 ------- 0 0.0 3.0 8 15
+ 1.039952 2 3 tcp 1540 ------- 0 0.0 3.0 8 15
- 1.039952 2 3 tcp 1540 ------- 0 0.0 3.0 8 15
r 1.044416 2 3 tcp 1540 ------- 0 0.0 3.0 8 15
+ 1.044416 3 2 ack 40 ------- 0 3.0 0.0 8 23
- 1.044416 3 2 ack 40 ------- 0 3.0 0.0 8 23
r 1.04648 3 2 ack 40 ------- 0 3.0 0.0 8 23
+ 1.04648 2 1 ack 40 ------- 0 3.0 0.0 8 23
- 1.04648 2 1 ack 40 ------- 0 3.0 0.0 8 23
- 1.063152 1 2 tcp 1540 ------- 0 0.0 3.0 14 21
r 1.064592 1 2 tcp 1540 ------- 0 0.0 3.0 9 16
+ 1.064592 2 3 tcp 1540 ------- 0 0.0 3.0 9 16
- 1.064592 2 3 tcp 1540 ------- 0 0.0 3.0 9 16
r 1.069056 2 3 tcp 1540 ------- 0 0.0 3.0 9 16
+ 1.069056 3 2 ack 40 ------- 0 3.0 0.0 9 24
- 1.069056 3 2 ack 40 ------- 0 3.0 0.0 9 24
r 1.07112 3 2 ack 40 ------- 0 3.0 0.0 9 24
+ 1.07112 2 1 ack 40 ------- 0 3.0 0.0 9 24
- 1.07112 2 1 ack 40 ------- 0 3.0 0.0 9 24
r 1.089232 1 2 tcp 1540 ------- 0 0.0 3.0 10 17
+ 1.089232 2 3 tcp 1540 ------- 0 0.0 3.0 10 17
- 1.089232 2 3 tcp 1540 ------- 0 0.0 3.0 10 17
r 1.093696 2 3 tcp 1540 ------- 0 0.0 3.0 10 17
+ 1.093696 3 2 ack 40 ------- 0 3.0 0.0 10 25
- 1.093696 3 2 ack 40 ------- 0 3.0 0.0 10 25
r 1.09576 3 2 ack 40 ------- 0 3.0 0.0 10 25
+ 1.09576 2 1 ack 40 ------- 0 3.0 0.0 10 25
- 1.09576 2 1 ack 40 ------- 0 3.0 0.0 10 25
r 1.113872 1 2 tcp 1540 ------- 0 0.0 3.0 11 18
+ 1.113872 2 3 tcp 1540 ------- 0 0.0 3.0 11 18
- 1.113872 2 3 tcp 1540 ------- 0 0.0 3.0 11 18
r 1.118336 2 3 tcp 1540 ------- 0 0.0 3.0 11 18
+ 1.118336 3 2 ack 40 ------- 0 3.0 0.0 11 26
- 1.118336 3 2 ack 40 ------- 0 3.0 0.0 11 26
r 1.1204 3 2 ack 40 ------- 0 3.0 0.0 11 26
+ 1.1204 2 1 ack 40 ------- 0 3.0 0.0 11 26
- 1.1204 2 1 ack 40 ------- 0 3.0 0.0 11 26
r 1.12248 2 1 ack 40 ------- 0 3.0 0.0 7 22
+ 1.12248 1 0 ack 40 ------- 0 3.0 0.0 7 22
- 1.12248 1 0 ack 40 ------- 0 3.0 0.0 7 22
r 1.124544 1 0 ack 40 ------- 0 3.0 0.0 7 22
+ 1.124544 0 1 tcp 1540 ------- 0 0.0 3.0 15 27
- 1.124544 0 1 tcp 1540 ------- 0 0.0 3.0 15 27
+ 1.124544 0 1 tcp 1540 ------- 0 0.0 3.0 16 28
- 1.127008 0 1 tcp 1540 ------- 0 0.0 3.0 16 28
r 1.129008 0 1 tcp 1540 ------- 0 0.0 3.0 15 27
+ 1.129008 1 2 tcp 1540 ------- 0 0.0 3.0 15 27
- 1.129008 1 2 tcp 1540 ------- 0 0.0 3.0 15 27
r 1.131472 0 1 tcp 1540 ------- 0 0.0 3.0 16 28
+ 1.131472 1 2 tcp 1540 ------- 0 0.0 3.0 16 28
r 1.138512 1 2 tcp 1540 ------- 0 0.0 3.0 12 19
+ 1.138512 2 3 tcp 1540 ------- 0 0.0 3.0 12 19
- 1.138512 2 3 tcp 1540 ------- 0 0.0 3.0 12 19
r 1.142976 2 3 tcp 1540 ------- 0 0.0 3.0 12 19
+ 1.142976 3 2 ack 40 ------- 0 3.0 0.0 12 29
- 1.142976 3 2 ack 40 ------- 0 3.0 0.0 12 29
r 1.14504 3 2 ack 40 ------- 0 3.0 0.0 12 29
+ 1.14504 2 1 ack 40 ------- 0 3.0 0.0 12 29
- 1.14504 2 1 ack 40 ------- 0 3.0 0.0 12 29
r 1.14712 2 1 ack 40 ------- 0 3.0 0.0 8 23
+ 1.14712 1 0 ack 40 ------- 0 3.0 0.0 8 23
- 1.14712 1 0 ack 40 ------- 0 3.0 0.0 8 23
r 1.149184 1 0 ack 40 ------- 0 3.0 0.0 8 23
+ 1.149184 0 1 tcp 1540 ------- 0 0.0 3.0 17 30
- 1.149184 0 1 tcp 1540 ------- 0 0.0 3.0 17 30
+ 1.149184 0 1 tcp 1540 ------- 0 0.0 3.0 18 31
- 1.151648 0 1 tcp 1540 ------- 0 0.0 3.0 18 31
- 1.153648 1 2 tcp 1540 ------- 0 0.0 3.0 16 28
r 1.153648 0 1 tcp 1540 ------- 0 0.0 3.0 17 30
+ 1.153648 1 2 tcp 1540 ------- 0 0.0 3.0 17 30
r 1.156112 0 1 tcp 1540 ------- 0 0.0 3.0 18 31
+ 1.156112 1 2 tcp 1540 ------- 0 0.0 3.0 18 31
r 1.163152 1 2 tcp 1540 ------- 0 0.0 3.0 13 20
+ 1.163152 2 3 tcp 1540 ------- 0 0.0 3.0 13 20
- 1.163152 2 3 tcp 1540 ------- 0 0.0 3.0 13 20
r 1.167616 2 3 tcp 1540 ------- 0 0.0 3.0 13 20
+ 1.167616 3 2 ack 40 ------- 0 3.0 0.0 13 32
- 1.167616 3 2 ack 40 ------- 0 3.0 0.0 13 32
r 1.16968 3 2 ack 40 ------- 0 3.0 0.0 13 32
+ 1.16968 2 1 ack 40 ------- 0 3.0 0.0 13 32
- 1.16968 2 1 ack 40 ------- 0 3.0 0.0 13 32
r 1.17176 2 1 ack 40 ------- 0 3.0 0.0 9 24
+ 1.17176 1 0 ack 40 ------- 0 3.0 0.0 9 24
- 1.17176 1 0 ack 40 ------- 0 3.0 0.0 9 24
r 1.173824 1 0 ack 40 ------- 0 3.0 0.0 9 24
+ 1.173824 0 1 tcp 1540 ------- 0 0.0 3.0 19 33
- 1.173824 0 1 tcp 1540 ------- 0 0.0 3.0 19 33
+ 1.173824 0 1 tcp 1540 ------- 0 0.0 3.0 20 34
- 1.176288 0 1 tcp 1540 ------- 0 0.0 3.0 20 34
- 1.178288 1 2 tcp 1540 ------- 0 0.0 3.0 17 30
r 1.178288 0 1 tcp 1540 ------- 0 0.0 3.0 19 33
+ 1.178288 1 2 tcp 1540 ------- 0 0.0 3.0 19 33
r 1.180752 0 1 tcp 1540 ------- 0 0.0 3.0 20 34
+ 1.180752 1 2 tcp 1540 ------- 0 0.0 3.0 20 34
r 1.187792 1 2 tcp 1540 ------- 0 0.0 3.0 14 21
+ 1.187792 2 3 tcp 1540 ------- 0 0.0 3.0 14 21
- 1.187792 2 3 tcp 1540 ------- 0 0.0 3.0 14 21
r 1.192256 2 3 tcp 1540 ------- 0 0.0 3.0 14 21
+ 1.192256 3 2 ack 40 ------- 0 3.0 0.0 14 35
- 1.192256 3 2 ack 40 ------- 0 3.0 0.0 14 35
r 1.19432 3 2 ack 40 ------- 0 3.0 0.0 14 35
+ 1.19432 2 1 ack 40 ------- 0 3.0 0.0 14 35
- 1.19432 2 1 ack 40 ------- 0 3.0 0.0 14 35
r 1.1964 2 1 ack 40 ------- 0 3.0 0.0 10 25
+ 1.1964 1 0 ack 40 ------- 0 3.0 0.0 10 25
- 1.1964 1 0 ack 40 ------- 0 3.0 0.0 10 25
r 1.198464 1 0 ack 40 ------- 0 3.0 0.0 10 25
+ 1.198464 0 1 tcp 1540 ------- 0 0.0 3.0 21 36
- 1.198464 0 1 tcp 1540 ------- 0 0.0 3.0 21 36
+ 1.198464 0 1 tcp 1540 ------- 0 0.0 3.0 22 37
- 1.200928 0 1 tcp 1540 ------- 0 0.0 3.0 22 37
- 1.202928 1 2 tcp 1540 ------- 0 0.0 3.0 18 31
r 1.202928 0 1 tcp 1540 ------- 0 0.0 3.0 21 36
+ 1.202928 1 2 tcp 1540 ------- 0 0.0 3.0 21 36
r 1.205392 0 1 tcp 1540 ------- 0 0.0 3.0 22 37
+ 1.205392 1 2 tcp 1540 ------- 0 0.0 3.0 22 37
r 1.22104 2 1 ack 40 ------- 0 3.0 0.0 11 26
+ 1.22104 1 0 ack 40 ------- 0 3.0 0.0 11 26
- 1.22104 1 0 ack 40 ------- 0 3.0 0.0 11 26
r 1.223104 1 0 ack 40 ------- 0 3.0 0.0 11 26
+ 1.223104 0 1 tcp 1540 ------- 0 0.0 3.0 23 38
- 1.223104 0 1 tcp 1540 ------- 0 0.0 3.0 23 38
+ 1.223104 0 1 tcp 1540 ------- 0 0.0 3.0 24 39
- 1.225568 0 1 tcp 1540 ------- 0 0.0 3.0 24 39
- 1.227568 1 2 tcp 1540 ------- 0 0.0 3.0 19 33
r 1.227568 0 1 tcp 1540 ------- 0 0.0 3.0 23 38
+ 1.227568 1 2 tcp 1540 ------- 0 0.0 3.0 23 38
r 1.230032 0 1 tcp 1540 ------- 0 0.0 3.0 24 39
+ 1.230032 1 2 tcp 1540 ------- 0 0.0 3.0 24 39
d 1.230032 1 2 tcp 1540 ------- 0 0.0 3.0 24 39
r 1.24568 2 1 ack 40 ------- 0 3.0 0.0 12 29
+ 1.24568 1 0 ack 40 ------- 0 3.0 0.0 12 29
- 1.24568 1 0 ack 40 ------- 0 3.0 0.0 12 29
r 1.247744 1 0 ack 40 ------- 0 3.0 0.0 12 29
+ 1.247744 0 1 tcp 1540 ------- 0 0.0 3.0 25 40
- 1.247744 0 1 tcp 1540 ------- 0 0.0 3.0 25 40
+ 1.247744 0 1 tcp 1540 ------- 0 0.0 3.0 26 41
- 1.250208 0 1 tcp 1540 ------- 0 0.0 3.0 26 41
- 1.252208 1 2 tcp 1540 ------- 0 0.0 3.0 20 34
r 1.252208 0 1 tcp 1540 ------- 0 0.0 3.0 25 40
+ 1.252208 1 2 tcp 1540 ------- 0 0.0 3.0 25 40
r 1.253648 1 2 tcp 1540 ------- 0 0.0 3.0 15 27
+ 1.253648 2 3 tcp 1540 ------- 0 0.0 3.0 15 27
- 1.253648 2 3 tcp 1540 ------- 0 0.0 3.0 15 27
r 1.254672 0 1 tcp 1540 ------- 0 0.0 3.0 26 41
+ 1.254672 1 2 tcp 1540 ------- 0 0.0 3.0 26 41
d 1.254672 1 2 tcp 1540 ------- 0 0.0 3.0 26 41
r 1.258112 2 3 tcp 1540 ------- 0 0.0 3.0 15 27
+ 1.258112 3 2 ack 40 ------- 0 3.0 0.0 15 42
- 1.258112 3 2 ack 40 ------- 0 3.0 0.0 15 42
r 1.260176 3 2 ack 40 ------- 0 3.0 0.0 15 42
+ 1.260176 2 1 ack 40 ------- 0 3.0 0.0 15 42
- 1.260176 2 1 ack 40 ------- 0 3.0 0.0 15 42
r 1.27032 2 1 ack 40 ------- 0 3.0 0.0 13 32
+ 1.27032 1 0 ack 40 ------- 0 3.0 0.0 13 32
- 1.27032 1 0 ack 40 ------- 0 3.0 0.0 13 32
r 1.272384 1 0 ack 40 ------- 0 3.0 0.0 13 32
+ 1.272384 0 1 tcp 1540 ------- 0 0.0 3.0 27 43
- 1.272384 0 1 tcp 1540 ------- 0 0.0 3.0 27 43
+ 1.272384 0 1 tcp 1540 ------- 0 0.0 3.0 28 44
- 1.274848 0 1 tcp 1540 ------- 0 0.0 3.0 28 44
- 1.276848 1 2 tcp 1540 ------- 0 0.0 3.0 21 36
r 1.276848 0 1 tcp 1540 ------- 0 0.0 3.0 27 43
+ 1.276848 1 2 tcp 1540 ------- 0 0.0 3.0 27 43
r 1.278288 1 2 tcp 1540 ------- 0 0.0 3.0 16 28
+ 1.278288 2 3 tcp 1540 ------- 0 0.0 3.0 16 28
- 1.278288 2 3 tcp 1540 ------- 0 0.0 3.0 16 28
r 1.279312 0 1 tcp 1540 ------- 0 0.0 3.0 28 44
+ 1.279312 1 2 tcp 1540 ------- 0 0.0 3.0 28 44
d 1.279312 1 2 tcp 1540 ------- 0 0.0 3.0 28 44
r 1.282752 2 3 tcp 1540 ------- 0 0.0 3.0 16 28
+ 1.282752 3 2 ack 40 ------- 0 3.0 0.0 16 45
- 1.282752 3 2 ack 40 ------- 0 3.0 0.0 16 45
r 1.284816 3 2 ack 40 ------- 0 3.0 0.0 16 45
+ 1.284816 2 1 ack 40 ------- 0 3.0 0.0 16 45
- 1.284816 2 1 ack 40 ------- 0 3.0 0.0 16 45
r 1.29496 2 1 ack 40 ------- 0 3.0 0.0 14 35
+ 1.29496 1 0 ack 40 ------- 0 3.0 0.0 14 35
- 1.29496 1 0 ack 40 ------- 0 3.0 0.0 14 35
r 1.297024 1 0 ack 40 ------- 0 3.0 0.0 14 35
+ 1.297024 0 1 tcp 1540 ------- 0 0.0 3.0 29 46
- 1.297024 0 1 tcp 1540 ------- 0 0.0 3.0 29 46
+ 1.297024 0 1 tcp 1540 ------- 0 0.0 3.0 30 47
- 1.299488 0 1 tcp 1540 ------- 0 0.0 3.0 30 47
- 1.301488 1 2 tcp 1540 ------- 0 0.0 3.0 22 37
r 1.301488 0 1 tcp 1540 ------- 0 0.0 3.0 29 46
+ 1.301488 1 2 tcp 1540 ------- 0 0.0 3.0 29 46
r 1.302928 1 2 tcp 1540 ------- 0 0.0 3.0 17 30
+ 1.302928 2 3 tcp 1540 ------- 0 0.0 3.0 17 30
- 1.302928 2 3 tcp 1540 ------- 0 0.0 3.0 17 30
r 1.303952 0 1 tcp 1540 ------- 0 0.0 3.0 30 47
+ 1.303952 1 2 tcp 1540 ------- 0 0.0 3.0 30 47
d 1.303952 1 2 tcp 1540 ------- 0 0.0 3.0 30 47
r 1.307392 2 3 tcp 1540 ------- 0 0.0 3.0 17 30
+ 1.307392 3 2 ack 40 ------- 0 3.0 0.0 17 48
- 1.307392 3 2 ack 40 ------- 0 3.0 0.0 17 48
r 1.309456 3 2 ack 40 ------- 0 3.0 0.0 17 48
+ 1.309456 2 1 ack 40 ------- 0 3.0 0.0 17 48
- 1.309456 2 1 ack 40 ------- 0 3.0 0.0 17 48
- 1.326128 1 2 tcp 1540 ------- 0 0.0 3.0 23 38
r 1.327568 1 2 tcp 1540 ------- 0 0.0 3.0 18 31
+ 1.327568 2 3 tcp 1540 ------- 0 0.0 3.0 18 31
- 1.327568 2 3 tcp 1540 ------- 0 0.0 3.0 18 31
r 1.332032 2 3 tcp 1540 ------- 0 0.0 3.0 18 31
+ 1.332032 3 2 ack 40 ------- 0 3.0 0.0 18 49
- 1.332032 3 2 ack 40 ------- 0 3.0 0.0 18 49
r 1.334096 3 2 ack 40 ------- 0 3.0 0.0 18 49
+ 1.334096 2 1 ack 40 ------- 0 3.0 0.0 18 49
- 1.334096 2 1 ack 40 ------- 0 3.0 0.0 18 49
- 1.350768 1 2 tcp 1540 ------- 0 0.0 3.0 25 40
r 1.352208 1 2 tcp 1540 ------- 0 0.0 3.0 19 33
+ 1.352208 2 3 tcp 1540 ------- 0 0.0 3.0 19 33
- 1.352208 2 3 tcp 1540 ------- 0 0.0 3.0 19 33
r 1.356672 2 3 tcp 1540 ------- 0 0.0 3.0 19 33
+ 1.356672 3 2 ack 40 ------- 0 3.0 0.0 19 50
- 1.356672 3 2 ack 40 ------- 0 3.0 0.0 19 50
r 1.358736 3 2 ack 40 ------- 0 3.0 0.0 19 50
+ 1.358736 2 1 ack 40 ------- 0 3.0 0.0 19 50
- 1.358736 2 1 ack 40 ------- 0 3.0 0.0 19 50
r 1.360816 2 1 ack 40 ------- 0 3.0 0.0 15 42
+ 1.360816 1 0 ack 40 ------- 0 3.0 0.0 15 42
- 1.360816 1 0 ack 40 ------- 0 3.0 0.0 15 42
r 1.36288 1 0 ack 40 ------- 0 3.0 0.0 15 42
+ 1.36288 0 1 tcp 1540 ------- 0 0.0 3.0 31 51
- 1.36288 0 1 tcp 1540 ------- 0 0.0 3.0 31 51
+ 1.36288 0 1 tcp 1540 ------- 0 0.0 3.0 32 52
- 1.365344 0 1 tcp 1540 ------- 0 0.0 3.0 32 52
r 1.367344 0 1 tcp 1540 ------- 0 0.0 3.0 31 51
+ 1.367344 1 2 tcp 1540 ------- 0 0.0 3.0 31 51
r 1.369808 0 1 tcp 1540 ------- 0 0.0 3.0 32 52
+ 1.369808 1 2 tcp 1540 ------- 0 0.0 3.0 32 52
- 1.375408 1 2 tcp 1540 ------- 0 0.0 3.0 27 43
r 1.376848 1 2 tcp 1540 ------- 0 0.0 3.0 20 34
+ 1.376848 2 3 tcp 1540 ------- 0 0.0 3.0 20 34
- 1.376848 2 3 tcp 1540 ------- 0 0.0 3.0 20 34
r 1.381312 2 3 tcp 1540 ------- 0 0.0 3.0 20 34
+ 1.381312 3 2 ack 40 ------- 0 3.0 0.0 20 53
- 1.381312 3 2 ack 40 ------- 0 3.0 0.0 20 53
r 1.383376 3 2 ack 40 ------- 0 3.0 0.0 20 53
+ 1.383376 2 1 ack 40 ------- 0 3.0 0.0 20 53
- 1.383376 2 1 ack 40 ------- 0 3.0 0.0 20 53
r 1.385456 2 1 ack 40 ------- 0 3.0 0.0 16 45
+ 1.385456 1 0 ack 40 ------- 0 3.0 0.0 16 45
- 1.385456 1 0 ack 40 ------- 0 3.0 0.0 16 45
r 1.38752 1 0 ack 40 ------- 0 3.0 0.0 16 45
+ 1.38752 0 1 tcp 1540 ------- 0 0.0 3.0 33 54
- 1.38752 0 1 tcp 1540 ------- 0 0.0 3.0 33 54
+ 1.38752 0 1 tcp 1540 ------- 0 0.0 3.0 34 55
- 1.389984 0 1 tcp 1540 ------- 0 0.0 3.0 34 55
r 1.391984 0 1 tcp 1540 ------- 0 0.0 3.0 33 54
+ 1.391984 1 2 tcp 1540 ------- 0 0.0 3.0 33 54
r 1.394448 0 1 tcp 1540 ------- 0 0.0 3.0 34 55
+ 1.394448 1 2 tcp 1540 ------- 0 0.0 3.0 34 55
d 1.394448 1 2 tcp 1540 ------- 0 0.0 3.0 34 55
- 1.400048 1 2 tcp 1540 ------- 0 0.0 3.0 29 46
r 1.401488 1 2 tcp 1540 ------- 0 0.0 3.0 21 36
+ 1.401488 2 3 tcp 1540 ------- 0 0.0 3.0 21 36
- 1.401488 2 3 tcp 1540 ------- 0 0.0 3.0 21 36
r 1.405952 2 3 tcp 1540 ------- 0 0.0 3.0 21 36
+ 1.405952 3 2 ack 40 ------- 0 3.0 0.0 21 56
- 1.405952 3 2 ack 40 ------- 0 3.0 0.0 21 56
r 1.408016 3 2 ack 40 ------- 0 3.0 0.0 21 56
+ 1.408016 2 1 ack 40 ------- 0 3.0 0.0 21 56
- 1.408016 2 1 ack 40 ------- 0 3.0 0.0 21 56
r 1.410096 2 1 ack 40 ------- 0 3.0 0.0 17 48
+ 1.410096 1 0 ack 40 ------- 0 3.0 0.0 17 48
- 1.410096 1 0 ack 40 ------- 0 3.0 0.0 17 48
r 1.41216 1 0 ack 40 ------- 0 3.0 0.0 17 48
+ 1.41216 0 1 tcp 1540 ------- 0 0.0 3.0 35 57
- 1.41216 0 1 tcp 1540 ------- 0 0.0 3.0 35 57
+ 1.41216 0 1 tcp 1540 ------- 0 0.0 3.0 36 58
- 1.414624 0 1 tcp 1540 ------- 0 0.0 3.0 36 58
r 1.416624 0 1 tcp 1540 ------- 0 0.0 3.0 35 57
+ 1.416624 1 2 tcp 1540 ------- 0 0.0 3.0 35 57
r 1.419088 0 1 tcp 1540 ------- 0 0.0 3.0 36 58
+ 1.419088 1 2 tcp 1540 ------- 0 0.0 3.0 36 58
d 1.419088 1 2 tcp 1540 ------- 0 0.0 3.0 36 58
- 1.424688 1 2 tcp 1540 ------- 0 0.0 3.0 31 51
r 1.426128 1 2 tcp 1540 ------- 0 0.0 3.0 22 37
+ 1.426128 2 3 tcp 1540 ------- 0 0.0 3.0 22 37
- 1.426128 2 3 tcp 1540 ------- 0 0.0 3.0 22 37
r 1.430592 2 3 tcp 1540 ------- 0 0.0 3.0 22 37
+ 1.430592 3 2 ack 40 ------- 0 3.0 0.0 22 59
- 1.430592 3 2 ack 40 ------- 0 3.0 0.0 22 59
r 1.432656 3 2 ack 40 ------- 0 3.0 0.0 22 59
+ 1.432656 2 1 ack 40 ------- 0 3.0 0.0 22 59
- 1.432656 2 1 ack 40 ------- 0 3.0 0.0 22 59
r 1.434736 2 1 ack 40 ------- 0 3.0 0.0 18 49
+ 1.434736 1 0 ack 40 ------- 0 3.0 0.0 18 49
- 1.434736 1 0 ack 40 ------- 0 3.0 0.0 18 49
r 1.4368 1 0 ack 40 ------- 0 3.0 0.0 18 49
+ 1.4368 0 1 tcp 1540 ------- 0 0.0 3.0 37 60
- 1.4368 0 1 tcp 1540 ------- 0 0.0 3.0 37 60
+ 1.4368 0 1 tcp 1540 ------- 0 0.0 3.0 38 61
- 1.439264 0 1 tcp 1540 ------- 0 0.0 3.0 38 61
r 1.441264 0 1 tcp 1540 ------- 0 0.0 3.0 37 60
+ 1.441264 1 2 tcp 1540 ------- 0 0.0 3.0 37 60
r 1.443728 0 1 tcp 1540 ------- 0 0.0 3.0 38 61
+ 1.443728 1 2 tcp 1540 ------- 0 0.0 3.0 38 61
d 1.443728 1 2 tcp 1540 ------- 0 0.0 3.0 38 61
- 1.449328 1 2 tcp 1540 ------- 0 0.0 3.0 32 52
r 1.450768 1 2 tcp 1540 ------- 0 0.0 3.0 23 38
+ 1.450768 2 3 tcp 1540 ------- 0 0.0 3.0 23 38
- 1.450768 2 3 tcp 1540 ------- 0 0.0 3.0 23 38
r 1.455232 2 3 tcp 1540 ------- 0 0.0 3.0 23 38
+ 1.455232 3 2 ack 40 ------- 0 3.0 0.0 23 62
- 1.455232 3 2 ack 40 ------- 0 3.0 0.0 23 62
r 1.457296 3 2 ack 40 ------- 0 3.0 0.0 23 62
+ 1.457296 2 1 ack 40 ------- 0 3.0 0.0 23 62
- 1.457296 2 1 ack 40 ------- 0 3.0 0.0 23 62
r 1.459376 2 1 ack 40 ------- 0 3.0 0.0 19 50
+ 1.459376 1 0 ack 40 ------- 0 3.0 0.0 19 50
- 1.459376 1 0 ack 40 ------- 0 3.0 0.0 19 50
r 1.46144 1 0 ack 40 ------- 0 3.0 0.0 19 50
+ 1.46144 0 1 tcp 1540 ------- 0 0.0 3.0 39 63
- 1.46144 0 1 tcp 1540 ------- 0 0.0 3.0 39 63
r 1.465904 0 1 tcp 1540 ------- 0 0.0 3.0 39 63
+ 1.465904 1 2 tcp 1540 ------- 0 0.0 3.0 39 63
- 1.473968 1 2 tcp 1540 ------- 0 0.0 3.0 33 54
r 1.475408 1 2 tcp 1540 ------- 0 0.0 3.0 25 40
+ 1.475408 2 3 tcp 1540 ------- 0 0.0 3.0 25 40
- 1.475408 2 3 tcp 1540 ------- 0 0.0 3.0 25 40
r 1.479872 2 3 tcp 1540 ------- 0 0.0 3.0 25 40
+ 1.479872 3 2 ack 40 ------- 0 3.0 0.0 23 64
- 1.479872 3 2 ack 40 ------- 0 3.0 0.0 23 64
r 1.481936 3 2 ack 40 ------- 0 3.0 0.0 23 64
+ 1.481936 2 1 ack 40 ------- 0 3.0 0.0 23 64
- 1.481936 2 1 ack 40 ------- 0 3.0 0.0 23 64
r 1.484016 2 1 ack 40 ------- 0 3.0 0.0 20 53
+ 1.484016 1 0 ack 40 ------- 0 3.0 0.0 20 53
- 1.484016 1 0 ack 40 ------- 0 3.0 0.0 20 53
r 1.48608 1 0 ack 40 ------- 0 3.0 0.0 20 53
+ 1.48608 0 1 tcp 1540 ------- 0 0.0 3.0 40 65
- 1.48608 0 1 tcp 1540 ------- 0 0.0 3.0 40 65
r 1.490544 0 1 tcp 1540 ------- 0 0.0 3.0 40 65
+ 1.490544 1 2 tcp 1540 ------- 0 0.0 3.0 40 65
- 1.498608 1 2 tcp 1540 ------- 0 0.0 3.0 35 57
r 1.500048 1 2 tcp 1540 ------- 0 0.0 3.0 27 43
+ 1.500048 2 3 tcp 1540 ------- 0 0.0 3.0 27 43
- 1.500048 2 3 tcp 1540 ------- 0 0.0 3.0 27 43
r 1.504512 2 3 tcp 1540 ------- 0 0.0 3.0 27 43
+ 1.504512 3 2 ack 40 ------- 0 3.0 0.0 23 66
- 1.504512 3 2 ack 40 ------- 0 3.0 0.0 23 66
r 1.506576 3 2 ack 40 ------- 0 3.0 0.0 23 66
+ 1.506576 2 1 ack 40 ------- 0 3.0 0.0 23 66
- 1.506576 2 1 ack 40 ------- 0 3.0 0.0 23 66
r 1.508656 2 1 ack 40 ------- 0 3.0 0.0 21 56
+ 1.508656 1 0 ack 40 ------- 0 3.0 0.0 21 56
- 1.508656 1 0 ack 40 ------- 0 3.0 0.0 21 56
r 1.51072 1 0 ack 40 ------- 0 3.0 0.0 21 56
+ 1.51072 0 1 tcp 1540 ------- 0 0.0 3.0 41 67
- 1.51072 0 1 tcp 1540 ------- 0 0.0 3.0 41 67
r 1.515184 0 1 tcp 1540 ------- 0 0.0 3.0 41 67
+ 1.515184 1 2 tcp 1540 ------- 0 0.0 3.0 41 67
- 1.523248 1 2 tcp 1540 ------- 0 0.0 3.0 37 60
r 1.524688 1 2 tcp 1540 ------- 0 0.0 3.0 29 46
+ 1.524688 2 3 tcp 1540 ------- 0 0.0 3.0 29 46
- 1.524688 2 3 tcp 1540 ------- 0 0.0 3.0 29 46
r 1.529152 2 3 tcp 1540 ------- 0 0.0 3.0 29 46
+ 1.529152 3 2 ack 40 ------- 0 3.0 0.0 23 68
- 1.529152 3 2 ack 40 ------- 0 3.0 0.0 23 68
r 1.531216 3 2 ack 40 ------- 0 3.0 0.0 23 68
+ 1.531216 2 1 ack 40 ------- 0 3.0 0.0 23 68
- 1.531216 2 1 ack 40 ------- 0 3.0 0.0 23 68
r 1.533296 2 1 ack 40 ------- 0 3.0 0.0 22 59
+ 1.533296 1 0 ack 40 ------- 0 3.0 0.0 22 59
- 1.533296 1 0 ack 40 ------- 0 3.0 0.0 22 59
r 1.53536 1 0 ack 40 ------- 0 3.0 0.0 22 59
+ 1.53536 0 1 tcp 1540 ------- 0 0.0 3.0 42 69
- 1.53536 0 1 tcp 1540 ------- 0 0.0 3.0 42 69
r 1.539824 0 1 tcp 1540 ------- 0 0.0 3.0 42 69
+ 1.539824 1 2 tcp 1540 ------- 0 0.0 3.0 42 69
- 1.547888 1 2 tcp 1540 ------- 0 0.0 3.0 39 63
r 1.549328 1 2 tcp 1540 ------- 0 0.0 3.0 31 51
+ 1.549328 2 3 tcp 1540 ------- 0 0.0 3.0 31 51
- 1.549328 2 3 tcp 1540 ------- 0 0.0 3.0 31 51
r 1.553792 2 3 tcp 1540 ------- 0 0.0 3.0 31 51
+ 1.553792 3 2 ack 40 ------- 0 3.0 0.0 23 70
- 1.553792 3 2 ack 40 ------- 0 3.0 0.0 23 70
r 1.555856 3 2 ack 40 ------- 0 3.0 0.0 23 70
+ 1.555856 2 1 ack 40 ------- 0 3.0 0.0 23 70
- 1.555856 2 1 ack 40 ------- 0 3.0 0.0 23 70
r 1.557936 2 1 ack 40 ------- 0 3.0 0.0 23 62
+ 1.557936 1 0 ack 40 ------- 0 3.0 0.0 23 62
- 1.557936 1 0 ack 40 ------- 0 3.0 0.0 23 62
r 1.56 1 0 ack 40 ------- 0 3.0 0.0 23 62
+ 1.56 0 1 tcp 1540 ------- 0 0.0 3.0 43 71
- 1.56 0 1 tcp 1540 ------- 0 0.0 3.0 43 71
r 1.564464 0 1 tcp 1540 ------- 0 0.0 3.0 43 71
+ 1.564464 1 2 tcp 1540 ------- 0 0.0 3.0 43 71
- 1.572528 1 2 tcp 1540 ------- 0 0.0 3.0 40 65
r 1.573968 1 2 tcp 1540 ------- 0 0.0 3.0 32 52
+ 1.573968 2 3 tcp 1540 ------- 0 0.0 3.0 32 52
- 1.573968 2 3 tcp 1540 ------- 0 0.0 3.0 32 52
r 1.578432 2 3 tcp 1540 ------- 0 0.0 3.0 32 52
+ 1.578432 3 2 ack 40 ------- 0 3.0 0.0 23 72
- 1.578432 3 2 ack 40 ------- 0 3.0 0.0 23 72
r 1.580496 3 2 ack 40 ------- 0 3.0 0.0 23 72
+ 1.580496 2 1 ack 40 ------- 0 3.0 0.0 23 72
- 1.580496 2 1 ack 40 ------- 0 3.0 0.0 23 72
r 1.582576 2 1 ack 40 ------- 0 3.0 0.0 23 64
+ 1.582576 1 0 ack 40 ------- 0 3.0 0.0 23 64
- 1.582576 1 0 ack 40 ------- 0 3.0 0.0 23 64
r 1.58464 1 0 ack 40 ------- 0 3.0 0.0 23 64
- 1.597168 1 2 tcp 1540 ------- 0 0.0 3.0 41 67
r 1.598608 1 2 tcp 1540 ------- 0 0.0 3.0 33 54
+ 1.598608 2 3 tcp 1540 ------- 0 0.0 3.0 33 54
- 1.598608 2 3 tcp 1540 ------- 0 0.0 3.0 33 54
r 1.603072 2 3 tcp 1540 ------- 0 0.0 3.0 33 54
+ 1.603072 3 2 ack 40 ------- 0 3.0 0.0 23 73
- 1.603072 3 2 ack 40 ------- 0 3.0 0.0 23 73
r 1.605136 3 2 ack 40 ------- 0 3.0 0.0 23 73
+ 1.605136 2 1 ack 40 ------- 0 3.0 0.0 23 73
- 1.605136 2 1 ack 40 ------- 0 3.0 0.0 23 73
r 1.607216 2 1 ack 40 ------- 0 3.0 0.0 23 66
+ 1.607216 1 0 ack 40 ------- 0 3.0 0.0 23 66
- 1.607216 1 0 ack 40 ------- 0 3.0 0.0 23 66
r 1.60928 1 0 ack 40 ------- 0 3.0 0.0 23 66
- 1.621808 1 2 tcp 1540 ------- 0 0.0 3.0 42 69
r 1.623248 1 2 tcp 1540 ------- 0 0.0 3.0 35 57
+ 1.623248 2 3 tcp 1540 ------- 0 0.0 3.0 35 57
- 1.623248 2 3 tcp 1540 ------- 0 0.0 3.0 35 57
r 1.627712 2 3 tcp 1540 ------- 0 0.0 3.0 35 57
+ 1.627712 3 2 ack 40 ------- 0 3.0 0.0 23 74
- 1.627712 3 2 ack 40 ------- 0 3.0 0.0 23 74
r 1.629776 3 2 ack 40 ------- 0 3.0 0.0 23 74
+ 1.629776 2 1 ack 40 ------- 0 3.0 0.0 23 74
- 1.629776 2 1 ack 40 ------- 0 3.0 0.0 23 74
r 1.631856 2 1 ack 40 ------- 0 3.0 0.0 23 68
+ 1.631856 1 0 ack 40 ------- 0 3.0 0.0 23 68
- 1.631856 1 0 ack 40 ------- 0 3.0 0.0 23 68
r 1.63392 1 0 ack 40 ------- 0 3.0 0.0 23 68
+ 1.63392 0 1 tcp 1540 ---A--- 0 0.0 3.0 24 75
- 1.63392 0 1 tcp 1540 ---A--- 0 0.0 3.0 24 75
r 1.638384 0 1 tcp 1540 ---A--- 0 0.0 3.0 24 75
+ 1.638384 1 2 tcp 1540 ---A--- 0 0.0 3.0 24 75
- 1.646448 1 2 tcp 1540 ------- 0 0.0 3.0 43 71
r 1.647888 1 2 tcp 1540 ------- 0 0.0 3.0 37 60
+ 1.647888 2 3 tcp 1540 ------- 0 0.0 3.0 37 60
- 1.647888 2 3 tcp 1540 ------- 0 0.0 3.0 37 60
r 1.652352 2 3 tcp 1540 ------- 0 0.0 3.0 37 60
+ 1.652352 3 2 ack 40 ------- 0 3.0 0.0 23 76
- 1.652352 3 2 ack 40 ------- 0 3.0 0.0 23 76
r 1.654416 3 2 ack 40 ------- 0 3.0 0.0 23 76
+ 1.654416 2 1 ack 40 ------- 0 3.0 0.0 23 76
- 1.654416 2 1 ack 40 ------- 0 3.0 0.0 23 76
r 1.656496 2 1 ack 40 ------- 0 3.0 0.0 23 70
+ 1.656496 1 0 ack 40 ------- 0 3.0 0.0 23 70
- 1.656496 1 0 ack 40 ------- 0 3.0 0.0 23 70
r 1.65856 1 0 ack 40 ------- 0 3.0 0.0 23 70
- 1.671088 1 2 tcp 1540 ---A--- 0 0.0 3.0 24 75
r 1.672528 1 2 tcp 1540 ------- 0 0.0 3.0 39 63
+ 1.672528 2 3 tcp 1540 ------- 0 0.0 3.0 39 63
- 1.672528 2 3 tcp 1540 ------- 0 0.0 3.0 39 63
r 1.676992 2 3 tcp 1540 ------- 0 0.0 3.0 39 63
+ 1.676992 3 2 ack 40 ------- 0 3.0 0.0 23 77
- 1.676992 3 2 ack 40 ------- 0 3.0 0.0 23 77
r 1.679056 3 2 ack 40 ------- 0 3.0 0.0 23 77
+ 1.679056 2 1 ack 40 ------- 0 3.0 0.0 23 77
- 1.679056 2 1 ack 40 ------- 0 3.0 0.0 23 77
r 1.681136 2 1 ack 40 ------- 0 3.0 0.0 23 72
+ 1.681136 1 0 ack 40 ------- 0 3.0 0.0 23 72
- 1.681136 1 0 ack 40 ------- 0 3.0 0.0 23 72
r 1.6832 1 0 ack 40 ------- 0 3.0 0.0 23 72
r 1.697168 1 2 tcp 1540 ------- 0 0.0 3.0 40 65
+ 1.697168 2 3 tcp 1540 ------- 0 0.0 3.0 40 65
- 1.697168 2 3 tcp 1540 ------- 0 0.0 3.0 40 65
r 1.701632 2 3 tcp 1540 ------- 0 0.0 3.0 40 65
+ 1.701632 3 2 ack 40 ------- 0 3.0 0.0 23 78
- 1.701632 3 2 ack 40 ------- 0 3.0 0.0 23 78
r 1.703696 3 2 ack 40 ------- 0 3.0 0.0 23 78
+ 1.703696 2 1 ack 40 ------- 0 3.0 0.0 23 78