+ 0 0 1 ping 50000 ------- 0 0.0 3.0 -1 0
- 0 0 1 ping 50000 ------- 0 0.0 3.0 -1 0
+ 0 1 3 ping 30000 ------- 0 1.0 4.0 -1 1
- 0 1 3 ping 30000 ------- 0 1.0 4.0 -1 1
+ 0 2 5 ping 41000 ------- 0 2.0 5.0 -1 2
- 0 2 5 ping 41000 ------- 0 2.0 5.0 -1 2
r 0.068 1 3 ping 30000 ------- 0 1.0 4.0 -1 1
+ 0.068 3 4 ping 30000 ------- 0 1.0 4.0 -1 1
- 0.068 3 4 ping 30000 ------- 0 1.0 4.0 -1 1
r 0.0856 2 5 ping 41000 ------- 0 2.0 5.0 -1 2
+ 0.0856 5 2 ping 64 ------- 0 5.0 2.0 -1 3
- 0.0856 5 2 ping 64 ------- 0 5.0 2.0 -1 3
+ 0.1 0 1 ping 50000 ------- 0 0.0 3.0 -1 4
- 0.1 0 1 ping 50000 ------- 0 0.0 3.0 -1 4
+ 0.1 1 3 ping 30000 ------- 0 1.0 4.0 -1 5
- 0.1 1 3 ping 30000 ------- 0 1.0 4.0 -1 5
+ 0.1 2 5 ping 41000 ------- 0 2.0 5.0 -1 6
- 0.1 2 5 ping 41000 ------- 0 2.0 5.0 -1 6
r 0.1 0 1 ping 50000 ------- 0 0.0 3.0 -1 0
+ 0.1 1 3 ping 50000 ------- 0 0.0 3.0 -1 0
r 0.105702 5 2 ping 64 ------- 0 5.0 2.0 -1 3
r 0.136 3 4 ping 30000 ------- 0 1.0 4.0 -1 1
+ 0.136 4 3 ping 64 ------- 0 4.0 1.0 -1 7
- 0.136 4 3 ping 64 ------- 0 4.0 1.0 -1 7
- 0.148 1 3 ping 50000 ------- 0 0.0 3.0 -1 0
r 0.156102 4 3 ping 64 ------- 0 4.0 1.0 -1 7
+ 0.156102 3 1 ping 64 ------- 0 4.0 1.0 -1 7
- 0.156102 3 1 ping 64 ------- 0 4.0 1.0 -1 7
r 0.168 1 3 ping 30000 ------- 0 1.0 4.0 -1 5
+ 0.168 3 4 ping 30000 ------- 0 1.0 4.0 -1 5
- 0.168 3 4 ping 30000 ------- 0 1.0 4.0 -1 5
r 0.176205 3 1 ping 64 ------- 0 4.0 1.0 -1 7
r 0.1856 2 5 ping 41000 ------- 0 2.0 5.0 -1 6
+ 0.1856 5 2 ping 64 ------- 0 5.0 2.0 -1 8
- 0.1856 5 2 ping 64 ------- 0 5.0 2.0 -1 8
+ 0.2 0 1 ping 50000 ------- 0 0.0 3.0 -1 9
- 0.2 0 1 ping 50000 ------- 0 0.0 3.0 -1 9
+ 0.2 1 3 ping 30000 ------- 0 1.0 4.0 -1 10
+ 0.2 2 5 ping 41000 ------- 0 2.0 5.0 -1 11
- 0.2 2 5 ping 41000 ------- 0 2.0 5.0 -1 11
r 0.2 0 1 ping 50000 ------- 0 0.0 3.0 -1 4
+ 0.2 1 3 ping 50000 ------- 0 0.0 3.0 -1 4
d 0.2 1 3 ping 50000 ------- 0 0.0 3.0 -1 4
r 0.205702 5 2 ping 64 ------- 0 5.0 2.0 -1 8
- 0.228 1 3 ping 30000 ------- 0 1.0 4.0 -1 10
r 0.236 3 4 ping 30000 ------- 0 1.0 4.0 -1 5
+ 0.236 4 3 ping 64 ------- 0 4.0 1.0 -1 12
- 0.236 4 3 ping 64 ------- 0 4.0 1.0 -1 12
r 0.248 1 3 ping 50000 ------- 0 0.0 3.0 -1 0
+ 0.248 3 1 ping 64 ------- 0 3.0 0.0 -1 13
- 0.248 3 1 ping 64 ------- 0 3.0 0.0 -1 13
r 0.256102 4 3 ping 64 ------- 0 4.0 1.0 -1 12
+ 0.256102 3 1 ping 64 ------- 0 4.0 1.0 -1 12
- 0.256102 3 1 ping 64 ------- 0 4.0 1.0 -1 12
r 0.268102 3 1 ping 64 ------- 0 3.0 0.0 -1 13
+ 0.268102 1 0 ping 64 ------- 0 3.0 0.0 -1 13
- 0.268102 1 0 ping 64 ------- 0 3.0 0.0 -1 13
r 0.276205 3 1 ping 64 ------- 0 4.0 1.0 -1 12
r 0.2856 2 5 ping 41000 ------- 0 2.0 5.0 -1 11
+ 0.2856 5 2 ping 64 ------- 0 5.0 2.0 -1 14
- 0.2856 5 2 ping 64 ------- 0 5.0 2.0 -1 14
r 0.288205 1 0 ping 64 ------- 0 3.0 0.0 -1 13
r 0.296 1 3 ping 30000 ------- 0 1.0 4.0 -1 10
+ 0.296 3 4 ping 30000 ------- 0 1.0 4.0 -1 10
- 0.296 3 4 ping 30000 ------- 0 1.0 4.0 -1 10
+ 0.3 0 1 ping 50000 ------- 0 0.0 3.0 -1 15
- 0.3 0 1 ping 50000 ------- 0 0.0 3.0 -1 15
+ 0.3 1 3 ping 30000 ------- 0 1.0 4.0 -1 16
- 0.3 1 3 ping 30000 ------- 0 1.0 4.0 -1 16
+ 0.3 2 5 ping 41000 ------- 0 2.0 5.0 -1 17
- 0.3 2 5 ping 41000 ------- 0 2.0 5.0 -1 17
r 0.3 0 1 ping 50000 ------- 0 0.0 3.0 -1 9
+ 0.3 1 3 ping 50000 ------- 0 0.0 3.0 -1 9
r 0.305702 5 2 ping 64 ------- 0 5.0 2.0 -1 14
- 0.348 1 3 ping 50000 ------- 0 0.0 3.0 -1 9
r 0.364 3 4 ping 30000 ------- 0 1.0 4.0 -1 10
+ 0.364 4 3 ping 64 ------- 0 4.0 1.0 -1 18
- 0.364 4 3 ping 64 ------- 0 4.0 1.0 -1 18
r 0.368 1 3 ping 30000 ------- 0 1.0 4.0 -1 16
+ 0.368 3 4 ping 30000 ------- 0 1.0 4.0 -1 16
- 0.368 3 4 ping 30000 ------- 0 1.0 4.0 -1 16
r 0.384102 4 3 ping 64 ------- 0 4.0 1.0 -1 18
+ 0.384102 3 1 ping 64 ------- 0 4.0 1.0 -1 18
- 0.384102 3 1 ping 64 ------- 0 4.0 1.0 -1 18
r 0.3856 2 5 ping 41000 ------- 0 2.0 5.0 -1 17
+ 0.3856 5 2 ping 64 ------- 0 5.0 2.0 -1 19
- 0.3856 5 2 ping 64 ------- 0 5.0 2.0 -1 19
+ 0.4 0 1 ping 50000 ------- 0 0.0 3.0 -1 20
- 0.4 0 1 ping 50000 ------- 0 0.0 3.0 -1 20
+ 0.4 1 3 ping 30000 ------- 0 1.0 4.0 -1 21
+ 0.4 2 5 ping 41000 ------- 0 2.0 5.0 -1 22
- 0.4 2 5 ping 41000 ------- 0 2.0 5.0 -1 22
r 0.4 0 1 ping 50000 ------- 0 0.0 3.0 -1 15
+ 0.4 1 3 ping 50000 ------- 0 0.0 3.0 -1 15
d 0.4 1 3 ping 50000 ------- 0 0.0 3.0 -1 15
r 0.404205 3 1 ping 64 ------- 0 4.0 1.0 -1 18
r 0.405702 5 2 ping 64 ------- 0 5.0 2.0 -1 19
- 0.428 1 3 ping 30000 ------- 0 1.0 4.0 -1 21
r 0.436 3 4 ping 30000 ------- 0 1.0 4.0 -1 16
+ 0.436 4 3 ping 64 ------- 0 4.0 1.0 -1 23
- 0.436 4 3 ping 64 ------- 0 4.0 1.0 -1 23
r 0.448 1 3 ping 50000 ------- 0 0.0 3.0 -1 9
+ 0.448 3 1 ping 64 ------- 0 3.0 0.0 -1 24
- 0.448 3 1 ping 64 ------- 0 3.0 0.0 -1 24
r 0.456102 4 3 ping 64 ------- 0 4.0 1.0 -1 23
+ 0.456102 3 1 ping 64 ------- 0 4.0 1.0 -1 23
- 0.456102 3 1 ping 64 ------- 0 4.0 1.0 -1 23
r 0.468102 3 1 ping 64 ------- 0 3.0 0.0 -1 24
+ 0.468102 1 0 ping 64 ------- 0 3.0 0.0 -1 24
- 0.468102 1 0 ping 64 ------- 0 3.0 0.0 -1 24
r 0.476205 3 1 ping 64 ------- 0 4.0 1.0 -1 23
r 0.4856 2 5 ping 41000 ------- 0 2.0 5.0 -1 22
+ 0.4856 5 2 ping 64 ------- 0 5.0 2.0 -1 25
- 0.4856 5 2 ping 64 ------- 0 5.0 2.0 -1 25
r 0.488205 1 0 ping 64 ------- 0 3.0 0.0 -1 24
r 0.496 1 3 ping 30000 ------- 0 1.0 4.0 -1 21
+ 0.496 3 4 ping 30000 ------- 0 1.0 4.0 -1 21
- 0.496 3 4 ping 30000 ------- 0 1.0 4.0 -1 21
+ 0.5 0 1 ping 50000 ------- 0 0.0 3.0 -1 26
- 0.5 0 1 ping 50000 ------- 0 0.0 3.0 -1 26
+ 0.5 1 3 ping 30000 ------- 0 1.0 4.0 -1 27
- 0.5 1 3 ping 30000 ------- 0 1.0 4.0 -1 27
+ 0.5 2 5 ping 41000 ------- 0 2.0 5.0 -1 28
- 0.5 2 5 ping 41000 ------- 0 2.0 5.0 -1 28
r 0.5 0 1 ping 50000 ------- 0 0.0 3.0 -1 20
+ 0.5 1 3 ping 50000 ------- 0 0.0 3.0 -1 20
r 0.505702 5 2 ping 64 ------- 0 5.0 2.0 -1 25
- 0.548 1 3 ping 50000 ------- 0 0.0 3.0 -1 20
r 0.564 3 4 ping 30000 ------- 0 1.0 4.0 -1 21
+ 0.564 4 3 ping 64 ------- 0 4.0 1.0 -1 29
- 0.564 4 3 ping 64 ------- 0 4.0 1.0 -1 29
r 0.568 1 3 ping 30000 ------- 0 1.0 4.0 -1 27
+ 0.568 3 4 ping 30000 ------- 0 1.0 4.0 -1 27
- 0.568 3 4 ping 30000 ------- 0 1.0 4.0 -1 27
r 0.584102 4 3 ping 64 ------- 0 4.0 1.0 -1 29
+ 0.584102 3 1 ping 64 ------- 0 4.0 1.0 -1 29
- 0.584102 3 1 ping 64 ------- 0 4.0 1.0 -1 29
r 0.5856 2 5 ping 41000 ------- 0 2.0 5.0 -1 28
+ 0.5856 5 2 ping 64 ------- 0 5.0 2.0 -1 30
- 0.5856 5 2 ping 64 ------- 0 5.0 2.0 -1 30
+ 0.6 0 1 ping 50000 ------- 0 0.0 3.0 -1 31
- 0.6 0 1 ping 50000 ------- 0 0.0 3.0 -1 31
+ 0.6 1 3 ping 30000 ------- 0 1.0 4.0 -1 32
+ 0.6 2 5 ping 41000 ------- 0 2.0 5.0 -1 33
- 0.6 2 5 ping 41000 ------- 0 2.0 5.0 -1 33
r 0.6 0 1 ping 50000 ------- 0 0.0 3.0 -1 26
+ 0.6 1 3 ping 50000 ------- 0 0.0 3.0 -1 26
d 0.6 1 3 ping 50000 ------- 0 0.0 3.0 -1 26
r 0.604205 3 1 ping 64 ------- 0 4.0 1.0 -1 29
r 0.605702 5 2 ping 64 ------- 0 5.0 2.0 -1 30
- 0.628 1 3 ping 30000 ------- 0 1.0 4.0 -1 32
r 0.636 3 4 ping 30000 ------- 0 1.0 4.0 -1 27
+ 0.636 4 3 ping 64 ------- 0 4.0 1.0 -1 34
- 0.636 4 3 ping 64 ------- 0 4.0 1.0 -1 34
r 0.648 1 3 ping 50000 ------- 0 0.0 3.0 -1 20
+ 0.648 3 1 ping 64 ------- 0 3.0 0.0 -1 35
- 0.648 3 1 ping 64 ------- 0 3.0 0.0 -1 35
r 0.656102 4 3 ping 64 ------- 0 4.0 1.0 -1 34
+ 0.656102 3 1 ping 64 ------- 0 4.0 1.0 -1 34
- 0.656102 3 1 ping 64 ------- 0 4.0 1.0 -1 34
r 0.668102 3 1 ping 64 ------- 0 3.0 0.0 -1 35
+ 0.668102 1 0 ping 64 ------- 0 3.0 0.0 -1 35
- 0.668102 1 0 ping 64 ------- 0 3.0 0.0 -1 35
r 0.676205 3 1 ping 64 ------- 0 4.0 1.0 -1 34
r 0.6856 2 5 ping 41000 ------- 0 2.0 5.0 -1 33
+ 0.6856 5 2 ping 64 ------- 0 5.0 2.0 -1 36
- 0.6856 5 2 ping 64 ------- 0 5.0 2.0 -1 36
r 0.688205 1 0 ping 64 ------- 0 3.0 0.0 -1 35
r 0.696 1 3 ping 30000 ------- 0 1.0 4.0 -1 32
+ 0.696 3 4 ping 30000 ------- 0 1.0 4.0 -1 32
- 0.696 3 4 ping 30000 ------- 0 1.0 4.0 -1 32
+ 0.7 0 1 ping 50000 ------- 0 0.0 3.0 -1 37
- 0.7 0 1 ping 50000 ------- 0 0.0 3.0 -1 37
+ 0.7 1 3 ping 30000 ------- 0 1.0 4.0 -1 38
- 0.7 1 3 ping 30000 ------- 0 1.0 4.0 -1 38
+ 0.7 2 5 ping 41000 ------- 0 2.0 5.0 -1 39
- 0.7 2 5 ping 41000 ------- 0 2.0 5.0 -1 39
r 0.7 0 1 ping 50000 ------- 0 0.0 3.0 -1 31
+ 0.7 1 3 ping 50000 ------- 0 0.0 3.0 -1 31
r 0.705702 5 2 ping 64 ------- 0 5.0 2.0 -1 36
- 0.748 1 3 ping 50000 ------- 0 0.0 3.0 -1 31
r 0.764 3 4 ping 30000 ------- 0 1.0 4.0 -1 32
+ 0.764 4 3 ping 64 ------- 0 4.0 1.0 -1 40
- 0.764 4 3 ping 64 ------- 0 4.0 1.0 -1 40
r 0.768 1 3 ping 30000 ------- 0 1.0 4.0 -1 38
+ 0.768 3 4 ping 30000 ------- 0 1.0 4.0 -1 38
- 0.768 3 4 ping 30000 ------- 0 1.0 4.0 -1 38
r 0.784102 4 3 ping 64 ------- 0 4.0 1.0 -1 40
+ 0.784102 3 1 ping 64 ------- 0 4.0 1.0 -1 40
- 0.784102 3 1 ping 64 ------- 0 4.0 1.0 -1 40
r 0.7856 2 5 ping 41000 ------- 0 2.0 5.0 -1 39
+ 0.7856 5 2 ping 64 ------- 0 5.0 2.0 -1 41
- 0.7856 5 2 ping 64 ------- 0 5.0 2.0 -1 41
+ 0.8 0 1 ping 50000 ------- 0 0.0 3.0 -1 42
- 0.8 0 1 ping 50000 ------- 0 0.0 3.0 -1 42
+ 0.8 1 3 ping 30000 ------- 0 1.0 4.0 -1 43
+ 0.8 2 5 ping 41000 ------- 0 2.0 5.0 -1 44
- 0.8 2 5 ping 41000 ------- 0 2.0 5.0 -1 44
r 0.8 0 1 ping 50000 ------- 0 0.0 3.0 -1 37
+ 0.8 1 3 ping 50000 ------- 0 0.0 3.0 -1 37
d 0.8 1 3 ping 50000 ------- 0 0.0 3.0 -1 37
r 0.804205 3 1 ping 64 ------- 0 4.0 1.0 -1 40
r 0.805702 5 2 ping 64 ------- 0 5.0 2.0 -1 41
- 0.828 1 3 ping 30000 ------- 0 1.0 4.0 -1 43
r 0.836 3 4 ping 30000 ------- 0 1.0 4.0 -1 38
+ 0.836 4 3 ping 64 ------- 0 4.0 1.0 -1 45
- 0.836 4 3 ping 64 ------- 0 4.0 1.0 -1 45
r 0.848 1 3 ping 50000 ------- 0 0.0 3.0 -1 31
+ 0.848 3 1 ping 64 ------- 0 3.0 0.0 -1 46
- 0.848 3 1 ping 64 ------- 0 3.0 0.0 -1 46
r 0.856102 4 3 ping 64 ------- 0 4.0 1.0 -1 45
+ 0.856102 3 1 ping 64 ------- 0 4.0 1.0 -1 45
- 0.856102 3 1 ping 64 ------- 0 4.0 1.0 -1 45
r 0.868102 3 1 ping 64 ------- 0 3.0 0.0 -1 46
+ 0.868102 1 0 ping 64 ------- 0 3.0 0.0 -1 46
- 0.868102 1 0 ping 64 ------- 0 3.0 0.0 -1 46
r 0.876205 3 1 ping 64 ------- 0 4.0 1.0 -1 45
r 0.8856 2 5 ping 41000 ------- 0 2.0 5.0 -1 44
+ 0.8856 5 2 ping 64 ------- 0 5.0 2.0 -1 47
- 0.8856 5 2 ping 64 ------- 0 5.0 2.0 -1 47
r 0.888205 1 0 ping 64 ------- 0 3.0 0.0 -1 46
r 0.896 1 3 ping 30000 ------- 0 1.0 4.0 -1 43
+ 0.896 3 4 ping 30000 ------- 0 1.0 4.0 -1 43
- 0.896 3 4 ping 30000 ------- 0 1.0 4.0 -1 43
+ 0.9 0 1 ping 50000 ------- 0 0.0 3.0 -1 48
- 0.9 0 1 ping 50000 ------- 0 0.0 3.0 -1 48
+ 0.9 1 3 ping 30000 ------- 0 1.0 4.0 -1 49
- 0.9 1 3 ping 30000 ------- 0 1.0 4.0 -1 49
+ 0.9 2 5 ping 41000 ------- 0 2.0 5.0 -1 50
- 0.9 2 5 ping 41000 ------- 0 2.0 5.0 -1 50
r 0.9 0 1 ping 50000 ------- 0 0.0 3.0 -1 42
+ 0.9 1 3 ping 50000 ------- 0 0.0 3.0 -1 42
r 0.905702 5 2 ping 64 ------- 0 5.0 2.0 -1 47
- 0.948 1 3 ping 50000 ------- 0 0.0 3.0 -1 42
r 0.964 3 4 ping 30000 ------- 0 1.0 4.0 -1 43
+ 0.964 4 3 ping 64 ------- 0 4.0 1.0 -1 51
- 0.964 4 3 ping 64 ------- 0 4.0 1.0 -1 51
r 0.968 1 3 ping 30000 ------- 0 1.0 4.0 -1 49
+ 0.968 3 4 ping 30000 ------- 0 1.0 4.0 -1 49
- 0.968 3 4 ping 30000 ------- 0 1.0 4.0 -1 49
r 0.984102 4 3 ping 64 ------- 0 4.0 1.0 -1 51
+ 0.984102 3 1 ping 64 ------- 0 4.0 1.0 -1 51
- 0.984102 3 1 ping 64 ------- 0 4.0 1.0 -1 51
r 0.9856 2 5 ping 41000 ------- 0 2.0 5.0 -1 50
+ 0.9856 5 2 ping 64 ------- 0 5.0 2.0 -1 52
- 0.9856 5 2 ping 64 ------- 0 5.0 2.0 -1 52
+ 1 0 1 ping 50000 ------- 0 0.0 3.0 -1 53
- 1 0 1 ping 50000 ------- 0 0.0 3.0 -1 53
+ 1 1 3 ping 30000 ------- 0 1.0 4.0 -1 54
+ 1 2 5 ping 41000 ------- 0 2.0 5.0 -1 55
- 1 2 5 ping 41000 ------- 0 2.0 5.0 -1 55
r 1 0 1 ping 50000 ------- 0 0.0 3.0 -1 48
+ 1 1 3 ping 50000 ------- 0 0.0 3.0 -1 48
d 1 1 3 ping 50000 ------- 0 0.0 3.0 -1 48
r 1.004205 3 1 ping 64 ------- 0 4.0 1.0 -1 51
r 1.005702 5 2 ping 64 ------- 0 5.0 2.0 -1 52
- 1.028 1 3 ping 30000 ------- 0 1.0 4.0 -1 54
r 1.036 3 4 ping 30000 ------- 0 1.0 4.0 -1 49
+ 1.036 4 3 ping 64 ------- 0 4.0 1.0 -1 56
- 1.036 4 3 ping 64 ------- 0 4.0 1.0 -1 56
r 1.048 1 3 ping 50000 ------- 0 0.0 3.0 -1 42
+ 1.048 3 1 ping 64 ------- 0 3.0 0.0 -1 57
- 1.048 3 1 ping 64 ------- 0 3.0 0.0 -1 57
r 1.056102 4 3 ping 64 ------- 0 4.0 1.0 -1 56
+ 1.056102 3 1 ping 64 ------- 0 4.0 1.0 -1 56
- 1.056102 3 1 ping 64 ------- 0 4.0 1.0 -1 56
r 1.068102 3 1 ping 64 ------- 0 3.0 0.0 -1 57
+ 1.068102 1 0 ping 64 ------- 0 3.0 0.0 -1 57
- 1.068102 1 0 ping 64 ------- 0 3.0 0.0 -1 57
r 1.076205 3 1 ping 64 ------- 0 4.0 1.0 -1 56
r 1.0856 2 5 ping 41000 ------- 0 2.0 5.0 -1 55
+ 1.0856 5 2 ping 64 ------- 0 5.0 2.0 -1 58
- 1.0856 5 2 ping 64 ------- 0 5.0 2.0 -1 58
r 1.088205 1 0 ping 64 ------- 0 3.0 0.0 -1 57
r 1.096 1 3 ping 30000 ------- 0 1.0 4.0 -1 54
+ 1.096 3 4 ping 30000 ------- 0 1.0 4.0 -1 54
- 1.096 3 4 ping 30000 ------- 0 1.0 4.0 -1 54
+ 1.1 0 1 ping 50000 ------- 0 0.0 3.0 -1 59
- 1.1 0 1 ping 50000 ------- 0 0.0 3.0 -1 59
+ 1.1 1 3 ping 30000 ------- 0 1.0 4.0 -1 60
- 1.1 1 3 ping 30000 ------- 0 1.0 4.0 -1 60
+ 1.1 2 5 ping 41000 ------- 0 2.0 5.0 -1 61
- 1.1 2 5 ping 41000 ------- 0 2.0 5.0 -1 61
r 1.1 0 1 ping 50000 ------- 0 0.0 3.0 -1 53
+ 1.1 1 3 ping 50000 ------- 0 0.0 3.0 -1 53
r 1.105702 5 2 ping 64 ------- 0 5.0 2.0 -1 58
- 1.148 1 3 ping 50000 ------- 0 0.0 3.0 -1 53
r 1.164 3 4 ping 30000 ------- 0 1.0 4.0 -1 54
+ 1.164 4 3 ping 64 ------- 0 4.0 1.0 -1 62
- 1.164 4 3 ping 64 ------- 0 4.0 1.0 -1 62
r 1.168 1 3 ping 30000 ------- 0 1.0 4.0 -1 60
+ 1.168 3 4 ping 30000 ------- 0 1.0 4.0 -1 60
- 1.168 3 4 ping 30000 ------- 0 1.0 4.0 -1 60
r 1.184102 4 3 ping 64 ------- 0 4.0 1.0 -1 62
+ 1.184102 3 1 ping 64 ------- 0 4.0 1.0 -1 62
- 1.184102 3 1 ping 64 ------- 0 4.0 1.0 -1 62
r 1.1856 2 5 ping 41000 ------- 0 2.0 5.0 -1 61
+ 1.1856 5 2 ping 64 ------- 0 5.0 2.0 -1 63
- 1.1856 5 2 ping 64 ------- 0 5.0 2.0 -1 63
+ 1.2 0 1 ping 50000 ------- 0 0.0 3.0 -1 64
- 1.2 0 1 ping 50000 ------- 0 0.0 3.0 -1 64
+ 1.2 1 3 ping 30000 ------- 0 1.0 4.0 -1 65
+ 1.2 2 5 ping 41000 ------- 0 2.0 5.0 -1 66
- 1.2 2 5 ping 41000 ------- 0 2.0 5.0 -1 66
r 1.2 0 1 ping 50000 ------- 0 0.0 3.0 -1 59
+ 1.2 1 3 ping 50000 ------- 0 0.0 3.0 -1 59
d 1.2 1 3 ping 50000 ------- 0 0.0 3.0 -1 59
r 1.204205 3 1 ping 64 ------- 0 4.0 1.0 -1 62
r 1.205702 5 2 ping 64 ------- 0 5.0 2.0 -1 63
- 1.228 1 3 ping 30000 ------- 0 1.0 4.0 -1 65
r 1.236 3 4 ping 30000 ------- 0 1.0 4.0 -1 60
+ 1.236 4 3 ping 64 ------- 0 4.0 1.0 -1 67
- 1.236 4 3 ping 64 ------- 0 4.0 1.0 -1 67
r 1.248 1 3 ping 50000 ------- 0 0.0 3.0 -1 53
+ 1.248 3 1 ping 64 ------- 0 3.0 0.0 -1 68
- 1.248 3 1 ping 64 ------- 0 3.0 0.0 -1 68
r 1.256102 4 3 ping 64 ------- 0 4.0 1.0 -1 67
+ 1.256102 3 1 ping 64 ------- 0 4.0 1.0 -1 67
- 1.256102 3 1 ping 64 ------- 0 4.0 1.0 -1 67
r 1.268102 3 1 ping 64 ------- 0 3.0 0.0 -1 68
+ 1.268102 1 0 ping 64 ------- 0 3.0 0.0 -1 68
- 1.268102 1 0 ping 64 ------- 0 3.0 0.0 -1 68
r 1.276205 3 1 ping 64 ------- 0 4.0 1.0 -1 67
r 1.2856 2 5 ping 41000 ------- 0 2.0 5.0 -1 66
+ 1.2856 5 2 ping 64 ------- 0 5.0 2.0 -1 69
- 1.2856 5 2 ping 64 ------- 0 5.0 2.0 -1 69
r 1.288205 1 0 ping 64 ------- 0 3.0 0.0 -1 68
r 1.296 1 3 ping 30000 ------- 0 1.0 4.0 -1 65
+ 1.296 3 4 ping 30000 ------- 0 1.0 4.0 -1 65
- 1.296 3 4 ping 30000 ------- 0 1.0 4.0 -1 65
+ 1.3 0 1 ping 50000 ------- 0 0.0 3.0 -1 70
- 1.3 0 1 ping 50000 ------- 0 0.0 3.0 -1 70
+ 1.3 1 3 ping 30000 ------- 0 1.0 4.0 -1 71
- 1.3 1 3 ping 30000 ------- 0 1.0 4.0 -1 71
+ 1.3 2 5 ping 41000 ------- 0 2.0 5.0 -1 72
- 1.3 2 5 ping 41000 ------- 0 2.0 5.0 -1 72
r 1.3 0 1 ping 50000 ------- 0 0.0 3.0 -1 64
+ 1.3 1 3 ping 50000 ------- 0 0.0 3.0 -1 64
r 1.305702 5 2 ping 64 ------- 0 5.0 2.0 -1 69
- 1.348 1 3 ping 50000 ------- 0 0.0 3.0 -1 64
r 1.364 3 4 ping 30000 ------- 0 1.0 4.0 -1 65
+ 1.364 4 3 ping 64 ------- 0 4.0 1.0 -1 73
- 1.364 4 3 ping 64 ------- 0 4.0 1.0 -1 73
r 1.368 1 3 ping 30000 ------- 0 1.0 4.0 -1 71
+ 1.368 3 4 ping 30000 ------- 0 1.0 4.0 -1 71
- 1.368 3 4 ping 30000 ------- 0 1.0 4.0 -1 71
r 1.384102 4 3 ping 64 ------- 0 4.0 1.0 -1 73
+ 1.384102 3 1 ping 64 ------- 0 4.0 1.0 -1 73
- 1.384102 3 1 ping 64 ------- 0 4.0 1.0 -1 73
r 1.3856 2 5 ping 41000 ------- 0 2.0 5.0 -1 72
+ 1.3856 5 2 ping 64 ------- 0 5.0 2.0 -1 74
- 1.3856 5 2 ping 64 ------- 0 5.0 2.0 -1 74
+ 1.4 0 1 ping 50000 ------- 0 0.0 3.0 -1 75
- 1.4 0 1 ping 50000 ------- 0 0.0 3.0 -1 75
+ 1.4 1 3 ping 30000 ------- 0 1.0 4.0 -1 76
+ 1.4 2 5 ping 41000 ------- 0 2.0 5.0 -1 77
- 1.4 2 5 ping 41000 ------- 0 2.0 5.0 -1 77
r 1.4 0 1 ping 50000 ------- 0 0.0 3.0 -1 70
+ 1.4 1 3 ping 50000 ------- 0 0.0 3.0 -1 70
d 1.4 1 3 ping 50000 ------- 0 0.0 3.0 -1 70
r 1.404205 3 1 ping 64 ------- 0 4.0 1.0 -1 73
r 1.405702 5 2 ping 64 ------- 0 5.0 2.0 -1 74
- 1.428 1 3 ping 30000 ------- 0 1.0 4.0 -1 76
r 1.436 3 4 ping 30000 ------- 0 1.0 4.0 -1 71
+ 1.436 4 3 ping 64 ------- 0 4.0 1.0 -1 78
- 1.436 4 3 ping 64 ------- 0 4.0 1.0 -1 78
r 1.448 1 3 ping 50000 ------- 0 0.0 3.0 -1 64
+ 1.448 3 1 ping 64 ------- 0 3.0 0.0 -1 79
- 1.448 3 1 ping 64 ------- 0 3.0 0.0 -1 79
r 1.456102 4 3 ping 64 ------- 0 4.0 1.0 -1 78
+ 1.456102 3 1 ping 64 ------- 0 4.0 1.0 -1 78
- 1.456102 3 1 ping 64 ------- 0 4.0 1.0 -1 78
r 1.468102 3 1 ping 64 ------- 0 3.0 0.0 -1 79
+ 1.468102 1 0 ping 64 ------- 0 3.0 0.0 -1 79
- 1.468102 1 0 ping 64 ------- 0 3.0 0.0 -1 79
r 1.476205 3 1 ping 64 ------- 0 4.0 1.0 -1 78
r 1.4856 2 5 ping 41000 ------- 0 2.0 5.0 -1 77
+ 1.4856 5 2 ping 64 ------- 0 5.0 2.0 -1 80
- 1.4856 5 2 ping 64 ------- 0 5.0 2.0 -1 80
r 1.488205 1 0 ping 64 ------- 0 3.0 0.0 -1 79
r 1.496 1 3 ping 30000 ------- 0 1.0 4.0 -1 76
+ 1.496 3 4 ping 30000 ------- 0 1.0 4.0 -1 76
- 1.496 3 4 ping 30000 ------- 0 1.0 4.0 -1 76
+ 1.5 0 1 ping 50000 ------- 0 0.0 3.0 -1 81
- 1.5 0 1 ping 50000 ------- 0 0.0 3.0 -1 81
+ 1.5 1 3 ping 30000 ------- 0 1.0 4.0 -1 82
- 1.5 1 3 ping 30000 ------- 0 1.0 4.0 -1 82
+ 1.5 2 5 ping 41000 ------- 0 2.0 5.0 -1 83
- 1.5 2 5 ping 41000 ------- 0 2.0 5.0 -1 83
r 1.5 0 1 ping 50000 ------- 0 0.0 3.0 -1 75
+ 1.5 1 3 ping 50000 ------- 0 0.0 3.0 -1 75
r 1.505702 5 2 ping 64 ------- 0 5.0 2.0 -1 80
- 1.548 1 3 ping 50000 ------- 0 0.0 3.0 -1 75
r 1.564 3 4 ping 30000 ------- 0 1.0 4.0 -1 76
+ 1.564 4 3 ping 64 ------- 0 4.0 1.0 -1 84
- 1.564 4 3 ping 64 ------- 0 4.0 1.0 -1 84
r 1.568 1 3 ping 30000 ------- 0 1.0 4.0 -1 82
+ 1.568 3 4 ping 30000 ------- 0 1.0 4.0 -1 82
- 1.568 3 4 ping 30000 ------- 0 1.0 4.0 -1 82
r 1.584102 4 3 ping 64 ------- 0 4.0 1.0 -1 84
+ 1.584102 3 1 ping 64 ------- 0 4.0 1.0 -1 84
- 1.584102 3 1 ping 64 ------- 0 4.0 1.0 -1 84
r 1.5856 2 5 ping 41000 ------- 0 2.0 5.0 -1 83
+ 1.5856 5 2 ping 64 ------- 0 5.0 2.0 -1 85
- 1.5856 5 2 ping 64 ------- 0 5.0 2.0 -1 85
+ 1.6 0 1 ping 50000 ------- 0 0.0 3.0 -1 86
- 1.6 0 1 ping 50000 ------- 0 0.0 3.0 -1 86
+ 1.6 1 3 ping 30000 ------- 0 1.0 4.0 -1 87
+ 1.6 2 5 ping 41000 ------- 0 2.0 5.0 -1 88
- 1.6 2 5 ping 41000 ------- 0 2.0 5.0 -1 88
r 1.6 0 1 ping 50000 ------- 0 0.0 3.0 -1 81
+ 1.6 1 3 ping 50000 ------- 0 0.0 3.0 -1 81
d 1.6 1 3 ping 50000 ------- 0 0.0 3.0 -1 81
r 1.604205 3 1 ping 64 ------- 0 4.0 1.0 -1 84
r 1.605702 5 2 ping 64 ------- 0 5.0 2.0 -1 85
- 1.628 1 3 ping 30000 ------- 0 1.0 4.0 -1 87
r 1.636 3 4 ping 30000 ------- 0 1.0 4.0 -1 82
+ 1.636 4 3 ping 64 ------- 0 4.0 1.0 -1 89
- 1.636 4 3 ping 64 ------- 0 4.0 1.0 -1 89
r 1.648 1 3 ping 50000 ------- 0 0.0 3.0 -1 75
+ 1.648 3 1 ping 64 ------- 0 3.0 0.0 -1 90
- 1.648 3 1 ping 64 ------- 0 3.0 0.0 -1 90
r 1.656102 4 3 ping 64 ------- 0 4.0 1.0 -1 89
+ 1.656102 3 1 ping 64 ------- 0 4.0 1.0 -1 89
- 1.656102 3 1 ping 64 ------- 0 4.0 1.0 -1 89
r 1.668102 3 1 ping 64 ------- 0 3.0 0.0 -1 90
+ 1.668102 1 0 ping 64 ------- 0 3.0 0.0 -1 90
- 1.668102 1 0 ping 64 ------- 0 3.0 0.0 -1 90
r 1.676205 3 1 ping 64 ------- 0 4.0 1.0 -1 89
r 1.6856 2 5 ping 41000 ------- 0 2.0 5.0 -1 88
+ 1.6856 5 2 ping 64 ------- 0 5.0 2.0 -1 91
- 1.6856 5 2 ping 64 ------- 0 5.0 2.0 -1 91
r 1.688205 1 0 ping 64 ------- 0 3.0 0.0 -1 90
r 1.696 1 3 ping 30000 ------- 0 1.0 4.0 -1 87
+ 1.696 3 4 ping 30000 ------- 0 1.0 4.0 -1 87
- 1.696 3 4 ping 30000 ------- 0 1.0 4.0 -1 87
+ 1.7 0 1 ping 50000 ------- 0 0.0 3.0 -1 92
- 1.7 0 1 ping 50000 ------- 0 0.0 3.0 -1 92
+ 1.7 1 3 ping 30000 ------- 0 1.0 4.0 -1 93
- 1.7 1 3 ping 30000 ------- 0 1.0 4.0 -1 93
+ 1.7 2 5 ping 41000 ------- 0 2.0 5.0 -1 94
- 1.7 2 5 ping 41000 ------- 0 2.0 5.0 -1 94
r 1.7 0 1 ping 50000 ------- 0 0.0 3.0 -1 86
+ 1.7 1 3 ping 50000 ------- 0 0.0 3.0 -1 86
r 1.705702 5 2 ping 64 ------- 0 5.0 2.0 -1 91
- 1.748 1 3 ping 50000 ------- 0 0.0 3.0 -1 86
r 1.764 3 4 ping 30000 ------- 0 1.0 4.0 -1 87
+ 1.764 4 3 ping 64 ------- 0 4.0 1.0 -1 95
- 1.764 4 3 ping 64 ------- 0 4.0 1.0 -1 95
r 1.768 1 3 ping 30000 ------- 0 1.0 4.0 -1 93
+ 1.768 3 4 ping 30000 ------- 0 1.0 4.0 -1 93
- 1.768 3 4 ping 30000 ------- 0 1.0 4.0 -1 93
r 1.784102 4 3 ping 64 ------- 0 4.0 1.0 -1 95
+ 1.784102 3 1 ping 64 ------- 0 4.0 1.0 -1 95
- 1.784102 3 1 ping 64 ------- 0 4.0 1.0 -1 95
r 1.7856 2 5 ping 41000 ------- 0 2.0 5.0 -1 94
+ 1.7856 5 2 ping 64 ------- 0 5.0 2.0 -1 96
- 1.7856 5 2 ping 64 ------- 0 5.0 2.0 -1 96
+ 1.8 0 1 ping 50000 ------- 0 0.0 3.0 -1 97
- 1.8 0 1 ping 50000 ------- 0 0.0 3.0 -1 97
+ 1.8 1 3 ping 30000 ------- 0 1.0 4.0 -1 98
+ 1.8 2 5 ping 41000 ------- 0 2.0 5.0 -1 99
- 1.8 2 5 ping 41000 ------- 0 2.0 5.0 -1 99
r 1.8 0 1 ping 50000 ------- 0 0.0 3.0 -1 92
+ 1.8 1 3 ping 50000 ------- 0 0.0 3.0 -1 92
d 1.8 1 3 ping 50000 ------- 0 0.0 3.0 -1 92
r 1.804205 3 1 ping 64 ------- 0 4.0 1.0 -1 95
r 1.805702 5 2 ping 64 ------- 0 5.0 2.0 -1 96
- 1.828 1 3 ping 30000 ------- 0 1.0 4.0 -1 98
r 1.836 3 4 ping 30000 ------- 0 1.0 4.0 -1 93
+ 1.836 4 3 ping 64 ------- 0 4.0 1.0 -1 100
- 1.836 4 3 ping 64 ------- 0 4.0 1.0 -1 100
r 1.848 1 3 ping 50000 ------- 0 0.0 3.0 -1 86
+ 1.848 3 1 ping 64 ------- 0 3.0 0.0 -1 101
- 1.848 3 1 ping 64 ------- 0 3.0 0.0 -1 101
r 1.856102 4 3 ping 64 ------- 0 4.0 1.0 -1 100
+ 1.856102 3 1 ping 64 ------- 0 4.0 1.0 -1 100
- 1.856102 3 1 ping 64 ------- 0 4.0 1.0 -1 100
r 1.868102 3 1 ping 64 ------- 0 3.0 0.0 -1 101
+ 1.868102 1 0 ping 64 ------- 0 3.0 0.0 -1 101
- 1.868102 1 0 ping 64 ------- 0 3.0 0.0 -1 101
r 1.876205 3 1 ping 64 ------- 0 4.0 1.0 -1 100
r 1.8856 2 5 ping 41000 ------- 0 2.0 5.0 -1 99
+ 1.8856 5 2 ping 64 ------- 0 5.0 2.0 -1 102
- 1.8856 5 2 ping 64 ------- 0 5.0 2.0 -1 102
r 1.888205 1 0 ping 64 ------- 0 3.0 0.0 -1 101
r 1.896 1 3 ping 30000 ------- 0 1.0 4.0 -1 98
+ 1.896 3 4 ping 30000 ------- 0 1.0 4.0 -1 98
- 1.896 3 4 ping 30000 ------- 0 1.0 4.0 -1 98
+ 1.9 0 1 ping 50000 ------- 0 0.0 3.0 -1 103
- 1.9 0 1 ping 50000 ------- 0 0.0 3.0 -1 103
+ 1.9 1 3 ping 30000 ------- 0 1.0 4.0 -1 104
- 1.9 1 3 ping 30000 ------- 0 1.0 4.0 -1 104
+ 1.9 2 5 ping 41000 ------- 0 2.0 5.0 -1 105
- 1.9 2 5 ping 41000 ------- 0 2.0 5.0 -1 105
r 1.9 0 1 ping 50000 ------- 0 0.0 3.0 -1 97
+ 1.9 1 3 ping 50000 ------- 0 0.0 3.0 -1 97
r 1.905702 5 2 ping 64 ------- 0 5.0 2.0 -1 102
- 1.948 1 3 ping 50000 ------- 0 0.0 3.0 -1 97
r 1.964 3 4 ping 30000 ------- 0 1.0 4.0 -1 98
+ 1.964 4 3 ping 64 ------- 0 4.0 1.0 -1 106
- 1.964 4 3 ping 64 ------- 0 4.0 1.0 -1 106
r 1.968 1 3 ping 30000 ------- 0 1.0 4.0 -1 104
+ 1.968 3 4 ping 30000 ------- 0 1.0 4.0 -1 104
- 1.968 3 4 ping 30000 ------- 0 1.0 4.0 -1 104
r 1.984102 4 3 ping 64 ------- 0 4.0 1.0 -1 106
+ 1.984102 3 1 ping 64 ------- 0 4.0 1.0 -1 106
- 1.984102 3 1 ping 64 ------- 0 4.0 1.0 -1 106
r 1.9856 2 5 ping 41000 ------- 0 2.0 5.0 -1 105
+ 1.9856 5 2 ping 64 ------- 0 5.0 2.0 -1 107
- 1.9856 5 2 ping 64 ------- 0 5.0 2.0 -1 107
