n -t 0 -s 0 -S DLABEL -l "TCP Source" -L ""
n -t 0 -s 2 -S DLABEL -l "TCP Sink" -L ""
V -t * -v 1.0a5 -a 0
A -t * -n 1 -p 0 -o 0x7fffffff -c 30 -a 1
A -t * -h 1 -m 1073741823 -s 0
n -t * -a 0 -s 0 -S UP -v circle -c black -i black
n -t * -a 1 -s 1 -S UP -v circle -c black -i black
n -t * -a 2 -s 2 -S UP -v circle -c black -i black
l -t * -s 0 -d 1 -S UP -r 8000000 -D 0.001 -c black
l -t * -s 1 -d 2 -S UP -r 1900000 -D 0.002 -c black
+ -t 0.2 -s 0 -d 1 -p tcp -e 40 -c 0 -i 0 -a 0 -x {0.0 2.0 0 ------- null}
- -t 0.2 -s 0 -d 1 -p tcp -e 40 -c 0 -i 0 -a 0 -x {0.0 2.0 0 ------- null}
h -t 0.2 -s 0 -d 1 -p tcp -e 40 -c 0 -i 0 -a 0 -x {0.0 2.0 -1 ------- null}
r -t 0.20104 -s 0 -d 1 -p tcp -e 40 -c 0 -i 0 -a 0 -x {0.0 2.0 0 ------- null}
+ -t 0.20104 -s 1 -d 2 -p tcp -e 40 -c 0 -i 0 -a 0 -x {0.0 2.0 0 ------- null}
- -t 0.20104 -s 1 -d 2 -p tcp -e 40 -c 0 -i 0 -a 0 -x {0.0 2.0 0 ------- null}
h -t 0.20104 -s 1 -d 2 -p tcp -e 40 -c 0 -i 0 -a 0 -x {0.0 2.0 -1 ------- null}
r -t 0.203208421052632 -s 1 -d 2 -p tcp -e 40 -c 0 -i 0 -a 0 -x {0.0 2.0 0 ------- null}
+ -t 0.203208421052632 -s 2 -d 1 -p ack -e 40 -c 0 -i 1 -a 0 -x {2.0 0.0 0 ------- null}
- -t 0.203208421052632 -s 2 -d 1 -p ack -e 40 -c 0 -i 1 -a 0 -x {2.0 0.0 0 ------- null}
h -t 0.203208421052632 -s 2 -d 1 -p ack -e 40 -c 0 -i 1 -a 0 -x {2.0 0.0 -1 ------- null}
r -t 0.205376842105263 -s 2 -d 1 -p ack -e 40 -c 0 -i 1 -a 0 -x {2.0 0.0 0 ------- null}
+ -t 0.205376842105263 -s 1 -d 0 -p ack -e 40 -c 0 -i 1 -a 0 -x {2.0 0.0 0 ------- null}
- -t 0.205376842105263 -s 1 -d 0 -p ack -e 40 -c 0 -i 1 -a 0 -x {2.0 0.0 0 ------- null}
h -t 0.205376842105263 -s 1 -d 0 -p ack -e 40 -c 0 -i 1 -a 0 -x {2.0 0.0 -1 ------- null}
r -t 0.206416842105263 -s 1 -d 0 -p ack -e 40 -c 0 -i 1 -a 0 -x {2.0 0.0 0 ------- null}
+ -t 0.206416842105263 -s 0 -d 1 -p tcp -e 1040 -c 0 -i 2 -a 0 -x {0.0 2.0 1 ------- null}
- -t 0.206416842105263 -s 0 -d 1 -p tcp -e 1040 -c 0 -i 2 -a 0 -x {0.0 2.0 1 ------- null}
h -t 0.206416842105263 -s 0 -d 1 -p tcp -e 1040 -c 0 -i 2 -a 0 -x {0.0 2.0 -1 ------- null}
+ -t 0.206416842105263 -s 0 -d 1 -p tcp -e 1040 -c 0 -i 3 -a 0 -x {0.0 2.0 2 ------- null}
- -t 0.207456842105263 -s 0 -d 1 -p tcp -e 1040 -c 0 -i 3 -a 0 -x {0.0 2.0 2 ------- null}
h -t 0.207456842105263 -s 0 -d 1 -p tcp -e 1040 -c 0 -i 3 -a 0 -x {0.0 2.0 -1 ------- null}
r -t 0.208456842105263 -s 0 -d 1 -p tcp -e 1040 -c 0 -i 2 -a 0 -x {0.0 2.0 1 ------- null}
+ -t 0.208456842105263 -s 1 -d 2 -p tcp -e 1040 -c 0 -i 2 -a 0 -x {0.0 2.0 1 ------- null}
- -t 0.208456842105263 -s 1 -d 2 -p tcp -e 1040 -c 0 -i 2 -a 0 -x {0.0 2.0 1 ------- null}
h -t 0.208456842105263 -s 1 -d 2 -p tcp -e 1040 -c 0 -i 2 -a 0 -x {0.0 2.0 -1 ------- null}
r -t 0.209496842105263 -s 0 -d 1 -p tcp -e 1040 -c 0 -i 3 -a 0 -x {0.0 2.0 2 ------- null}
+ -t 0.209496842105263 -s 1 -d 2 -p tcp -e 1040 -c 0 -i 3 -a 0 -x {0.0 2.0 2 ------- null}
- -t 0.212835789473684 -s 1 -d 2 -p tcp -e 1040 -c 0 -i 3 -a 0 -x {0.0 2.0 2 ------- null}
h -t 0.212835789473684 -s 1 -d 2 -p tcp -e 1040 -c 0 -i 3 -a 0 -x {0.0 2.0 -1 ------- null}
r -t 0.214835789473684 -s 1 -d 2 -p tcp -e 1040 -c 0 -i 2 -a 0 -x {0.0 2.0 1 ------- null}
+ -t 0.214835789473684 -s 2 -d 1 -p ack -e 40 -c 0 -i 4 -a 0 -x {2.0 0.0 1 ------- null}
- -t 0.214835789473684 -s 2 -d 1 -p ack -e 40 -c 0 -i 4 -a 0 -x {2.0 0.0 1 ------- null}
h -t 0.214835789473684 -s 2 -d 1 -p ack -e 40 -c 0 -i 4 -a 0 -x {2.0 0.0 -1 ------- null}
r -t 0.217004210526316 -s 2 -d 1 -p ack -e 40 -c 0 -i 4 -a 0 -x {2.0 0.0 1 ------- null}
+ -t 0.217004210526316 -s 1 -d 0 -p ack -e 40 -c 0 -i 4 -a 0 -x {2.0 0.0 1 ------- null}
- -t 0.217004210526316 -s 1 -d 0 -p ack -e 40 -c 0 -i 4 -a 0 -x {2.0 0.0 1 ------- null}
h -t 0.217004210526316 -s 1 -d 0 -p ack -e 40 -c 0 -i 4 -a 0 -x {2.0 0.0 -1 ------- null}
r -t 0.218044210526316 -s 1 -d 0 -p ack -e 40 -c 0 -i 4 -a 0 -x {2.0 0.0 1 ------- null}
+ -t 0.218044210526316 -s 0 -d 1 -p tcp -e 1040 -c 0 -i 5 -a 0 -x {0.0 2.0 3 ------- null}
- -t 0.218044210526316 -s 0 -d 1 -p tcp -e 1040 -c 0 -i 5 -a 0 -x {0.0 2.0 3 ------- null}
h -t 0.218044210526316 -s 0 -d 1 -p tcp -e 1040 -c 0 -i 5 -a 0 -x {0.0 2.0 -1 ------- null}
+ -t 0.218044210526316 -s 0 -d 1 -p tcp -e 1040 -c 0 -i 6 -a 0 -x {0.0 2.0 4 ------- null}
- -t 0.219084210526316 -s 0 -d 1 -p tcp -e 1040 -c 0 -i 6 -a 0 -x {0.0 2.0 4 ------- null}
h -t 0.219084210526316 -s 0 -d 1 -p tcp -e 1040 -c 0 -i 6 -a 0 -x {0.0 2.0 -1 ------- null}
r -t 0.219214736842105 -s 1 -d 2 -p tcp -e 1040 -c 0 -i 3 -a 0 -x {0.0 2.0 2 ------- null}
+ -t 0.219214736842105 -s 2 -d 1 -p ack -e 40 -c 0 -i 7 -a 0 -x {2.0 0.0 2 ------- null}
- -t 0.219214736842105 -s 2 -d 1 -p ack -e 40 -c 0 -i 7 -a 0 -x {2.0 0.0 2 ------- null}
h -t 0.219214736842105 -s 2 -d 1 -p ack -e 40 -c 0 -i 7 -a 0 -x {2.0 0.0 -1 ------- null}
r -t 0.220084210526316 -s 0 -d 1 -p tcp -e 1040 -c 0 -i 5 -a 0 -x {0.0 2.0 3 ------- null}
+ -t 0.220084210526316 -s 1 -d 2 -p tcp -e 1040 -c 0 -i 5 -a 0 -x {0.0 2.0 3 ------- null}
- -t 0.220084210526316 -s 1 -d 2 -p tcp -e 1040 -c 0 -i 5 -a 0 -x {0.0 2.0 3 ------- null}
h -t 0.220084210526316 -s 1 -d 2 -p tcp -e 1040 -c 0 -i 5 -a 0 -x {0.0 2.0 -1 ------- null}
r -t 0.221124210526316 -s 0 -d 1 -p tcp -e 1040 -c 0 -i 6 -a 0 -x {0.0 2.0 4 ------- null}
+ -t 0.221124210526316 -s 1 -d 2 -p tcp -e 1040 -c 0 -i 6 -a 0 -x {0.0 2.0 4 ------- null}
r -t 0.221383157894737 -s 2 -d 1 -p ack -e 40 -c 0 -i 7 -a 0 -x {2.0 0.0 2 ------- null}
+ -t 0.221383157894737 -s 1 -d 0 -p ack -e 40 -c 0 -i 7 -a 0 -x {2.0 0.0 2 ------- null}
- -t 0.221383157894737 -s 1 -d 0 -p ack -e 40 -c 0 -i 7 -a 0 -x {2.0 0.0 2 ------- null}
h -t 0.221383157894737 -s 1 -d 0 -p ack -e 40 -c 0 -i 7 -a 0 -x {2.0 0.0 -1 ------- null}
r -t 0.222423157894737 -s 1 -d 0 -p ack -e 40 -c 0 -i 7 -a 0 -x {2.0 0.0 2 ------- null}
+ -t 0.222423157894737 -s 0 -d 1 -p tcp -e 1040 -c 0 -i 8 -a 0 -x {0.0 2.0 5 ------- null}
- -t 0.222423157894737 -s 0 -d 1 -p tcp -e 1040 -c 0 -i 8 -a 0 -x {0.0 2.0 5 ------- null}
h -t 0.222423157894737 -s 0 -d 1 -p tcp -e 1040 -c 0 -i 8 -a 0 -x {0.0 2.0 -1 ------- null}
+ -t 0.222423157894737 -s 0 -d 1 -p tcp -e 1040 -c 0 -i 9 -a 0 -x {0.0 2.0 6 ------- null}
- -t 0.223463157894737 -s 0 -d 1 -p tcp -e 1040 -c 0 -i 9 -a 0 -x {0.0 2.0 6 ------- null}
h -t 0.223463157894737 -s 0 -d 1 -p tcp -e 1040 -c 0 -i 9 -a 0 -x {0.0 2.0 -1 ------- null}
- -t 0.224463157894737 -s 1 -d 2 -p tcp -e 1040 -c 0 -i 6 -a 0 -x {0.0 2.0 4 ------- null}
h -t 0.224463157894737 -s 1 -d 2 -p tcp -e 1040 -c 0 -i 6 -a 0 -x {0.0 2.0 -1 ------- null}
r -t 0.224463157894737 -s 0 -d 1 -p tcp -e 1040 -c 0 -i 8 -a 0 -x {0.0 2.0 5 ------- null}
+ -t 0.224463157894737 -s 1 -d 2 -p tcp -e 1040 -c 0 -i 8 -a 0 -x {0.0 2.0 5 ------- null}
r -t 0.225503157894737 -s 0 -d 1 -p tcp -e 1040 -c 0 -i 9 -a 0 -x {0.0 2.0 6 ------- null}
+ -t 0.225503157894737 -s 1 -d 2 -p tcp -e 1040 -c 0 -i 9 -a 0 -x {0.0 2.0 6 ------- null}
r -t 0.226463157894737 -s 1 -d 2 -p tcp -e 1040 -c 0 -i 5 -a 0 -x {0.0 2.0 3 ------- null}
+ -t 0.226463157894737 -s 2 -d 1 -p ack -e 40 -c 0 -i 10 -a 0 -x {2.0 0.0 3 ------- null}
- -t 0.226463157894737 -s 2 -d 1 -p ack -e 40 -c 0 -i 10 -a 0 -x {2.0 0.0 3 ------- null}
h -t 0.226463157894737 -s 2 -d 1 -p ack -e 40 -c 0 -i 10 -a 0 -x {2.0 0.0 -1 ------- null}
r -t 0.228631578947368 -s 2 -d 1 -p ack -e 40 -c 0 -i 10 -a 0 -x {2.0 0.0 3 ------- null}
+ -t 0.228631578947368 -s 1 -d 0 -p ack -e 40 -c 0 -i 10 -a 0 -x {2.0 0.0 3 ------- null}
- -t 0.228631578947368 -s 1 -d 0 -p ack -e 40 -c 0 -i 10 -a 0 -x {2.0 0.0 3 ------- null}
h -t 0.228631578947368 -s 1 -d 0 -p ack -e 40 -c 0 -i 10 -a 0 -x {2.0 0.0 -1 ------- null}
- -t 0.228842105263158 -s 1 -d 2 -p tcp -e 1040 -c 0 -i 8 -a 0 -x {0.0 2.0 5 ------- null}
h -t 0.228842105263158 -s 1 -d 2 -p tcp -e 1040 -c 0 -i 8 -a 0 -x {0.0 2.0 -1 ------- null}
r -t 0.229671578947368 -s 1 -d 0 -p ack -e 40 -c 0 -i 10 -a 0 -x {2.0 0.0 3 ------- null}
+ -t 0.229671578947368 -s 0 -d 1 -p tcp -e 1040 -c 0 -i 11 -a 0 -x {0.0 2.0 7 ------- null}
- -t 0.229671578947368 -s 0 -d 1 -p tcp -e 1040 -c 0 -i 11 -a 0 -x {0.0 2.0 7 ------- null}
h -t 0.229671578947368 -s 0 -d 1 -p tcp -e 1040 -c 0 -i 11 -a 0 -x {0.0 2.0 -1 ------- null}
+ -t 0.229671578947368 -s 0 -d 1 -p tcp -e 1040 -c 0 -i 12 -a 0 -x {0.0 2.0 8 ------- null}
- -t 0.230711578947368 -s 0 -d 1 -p tcp -e 1040 -c 0 -i 12 -a 0 -x {0.0 2.0 8 ------- null}
h -t 0.230711578947368 -s 0 -d 1 -p tcp -e 1040 -c 0 -i 12 -a 0 -x {0.0 2.0 -1 ------- null}
r -t 0.230842105263158 -s 1 -d 2 -p tcp -e 1040 -c 0 -i 6 -a 0 -x {0.0 2.0 4 ------- null}
+ -t 0.230842105263158 -s 2 -d 1 -p ack -e 40 -c 0 -i 13 -a 0 -x {2.0 0.0 4 ------- null}
- -t 0.230842105263158 -s 2 -d 1 -p ack -e 40 -c 0 -i 13 -a 0 -x {2.0 0.0 4 ------- null}
h -t 0.230842105263158 -s 2 -d 1 -p ack -e 40 -c 0 -i 13 -a 0 -x {2.0 0.0 -1 ------- null}
r -t 0.231711578947368 -s 0 -d 1 -p tcp -e 1040 -c 0 -i 11 -a 0 -x {0.0 2.0 7 ------- null}
+ -t 0.231711578947368 -s 1 -d 2 -p tcp -e 1040 -c 0 -i 11 -a 0 -x {0.0 2.0 7 ------- null}
r -t 0.232751578947368 -s 0 -d 1 -p tcp -e 1040 -c 0 -i 12 -a 0 -x {0.0 2.0 8 ------- null}
+ -t 0.232751578947368 -s 1 -d 2 -p tcp -e 1040 -c 0 -i 12 -a 0 -x {0.0 2.0 8 ------- null}
r -t 0.233010526315789 -s 2 -d 1 -p ack -e 40 -c 0 -i 13 -a 0 -x {2.0 0.0 4 ------- null}
+ -t 0.233010526315789 -s 1 -d 0 -p ack -e 40 -c 0 -i 13 -a 0 -x {2.0 0.0 4 ------- null}
- -t 0.233010526315789 -s 1 -d 0 -p ack -e 40 -c 0 -i 13 -a 0 -x {2.0 0.0 4 ------- null}
h -t 0.233010526315789 -s 1 -d 0 -p ack -e 40 -c 0 -i 13 -a 0 -x {2.0 0.0 -1 ------- null}
- -t 0.233221052631579 -s 1 -d 2 -p tcp -e 1040 -c 0 -i 9 -a 0 -x {0.0 2.0 6 ------- null}
h -t 0.233221052631579 -s 1 -d 2 -p tcp -e 1040 -c 0 -i 9 -a 0 -x {0.0 2.0 -1 ------- null}
r -t 0.234050526315789 -s 1 -d 0 -p ack -e 40 -c 0 -i 13 -a 0 -x {2.0 0.0 4 ------- null}
+ -t 0.234050526315789 -s 0 -d 1 -p tcp -e 1040 -c 0 -i 14 -a 0 -x {0.0 2.0 9 ------- null}
- -t 0.234050526315789 -s 0 -d 1 -p tcp -e 1040 -c 0 -i 14 -a 0 -x {0.0 2.0 9 ------- null}
h -t 0.234050526315789 -s 0 -d 1 -p tcp -e 1040 -c 0 -i 14 -a 0 -x {0.0 2.0 -1 ------- null}
+ -t 0.234050526315789 -s 0 -d 1 -p tcp -e 1040 -c 0 -i 15 -a 0 -x {0.0 2.0 10 ------- null}
- -t 0.235090526315789 -s 0 -d 1 -p tcp -e 1040 -c 0 -i 15 -a 0 -x {0.0 2.0 10 ------- null}
h -t 0.235090526315789 -s 0 -d 1 -p tcp -e 1040 -c 0 -i 15 -a 0 -x {0.0 2.0 -1 ------- null}
r -t 0.235221052631579 -s 1 -d 2 -p tcp -e 1040 -c 0 -i 8 -a 0 -x {0.0 2.0 5 ------- null}
+ -t 0.235221052631579 -s 2 -d 1 -p ack -e 40 -c 0 -i 16 -a 0 -x {2.0 0.0 5 ------- null}
- -t 0.235221052631579 -s 2 -d 1 -p ack -e 40 -c 0 -i 16 -a 0 -x {2.0 0.0 5 ------- null}
h -t 0.235221052631579 -s 2 -d 1 -p ack -e 40 -c 0 -i 16 -a 0 -x {2.0 0.0 -1 ------- null}
r -t 0.236090526315789 -s 0 -d 1 -p tcp -e 1040 -c 0 -i 14 -a 0 -x {0.0 2.0 9 ------- null}
+ -t 0.236090526315789 -s 1 -d 2 -p tcp -e 1040 -c 0 -i 14 -a 0 -x {0.0 2.0 9 ------- null}
r -t 0.237130526315789 -s 0 -d 1 -p tcp -e 1040 -c 0 -i 15 -a 0 -x {0.0 2.0 10 ------- null}
+ -t 0.237130526315789 -s 1 -d 2 -p tcp -e 1040 -c 0 -i 15 -a 0 -x {0.0 2.0 10 ------- null}
r -t 0.237389473684211 -s 2 -d 1 -p ack -e 40 -c 0 -i 16 -a 0 -x {2.0 0.0 5 ------- null}
+ -t 0.237389473684211 -s 1 -d 0 -p ack -e 40 -c 0 -i 16 -a 0 -x {2.0 0.0 5 ------- null}
- -t 0.237389473684211 -s 1 -d 0 -p ack -e 40 -c 0 -i 16 -a 0 -x {2.0 0.0 5 ------- null}
h -t 0.237389473684211 -s 1 -d 0 -p ack -e 40 -c 0 -i 16 -a 0 -x {2.0 0.0 -1 ------- null}
- -t 0.2376 -s 1 -d 2 -p tcp -e 1040 -c 0 -i 11 -a 0 -x {0.0 2.0 7 ------- null}
h -t 0.2376 -s 1 -d 2 -p tcp -e 1040 -c 0 -i 11 -a 0 -x {0.0 2.0 -1 ------- null}
r -t 0.238429473684211 -s 1 -d 0 -p ack -e 40 -c 0 -i 16 -a 0 -x {2.0 0.0 5 ------- null}
+ -t 0.238429473684211 -s 0 -d 1 -p tcp -e 1040 -c 0 -i 17 -a 0 -x {0.0 2.0 11 ------- null}
- -t 0.238429473684211 -s 0 -d 1 -p tcp -e 1040 -c 0 -i 17 -a 0 -x {0.0 2.0 11 ------- null}
h -t 0.238429473684211 -s 0 -d 1 -p tcp -e 1040 -c 0 -i 17 -a 0 -x {0.0 2.0 -1 ------- null}
+ -t 0.238429473684211 -s 0 -d 1 -p tcp -e 1040 -c 0 -i 18 -a 0 -x {0.0 2.0 12 ------- null}
- -t 0.239469473684211 -s 0 -d 1 -p tcp -e 1040 -c 0 -i 18 -a 0 -x {0.0 2.0 12 ------- null}
h -t 0.239469473684211 -s 0 -d 1 -p tcp -e 1040 -c 0 -i 18 -a 0 -x {0.0 2.0 -1 ------- null}
r -t 0.2396 -s 1 -d 2 -p tcp -e 1040 -c 0 -i 9 -a 0 -x {0.0 2.0 6 ------- null}
+ -t 0.2396 -s 2 -d 1 -p ack -e 40 -c 0 -i 19 -a 0 -x {2.0 0.0 6 ------- null}
- -t 0.2396 -s 2 -d 1 -p ack -e 40 -c 0 -i 19 -a 0 -x {2.0 0.0 6 ------- null}
h -t 0.2396 -s 2 -d 1 -p ack -e 40 -c 0 -i 19 -a 0 -x {2.0 0.0 -1 ------- null}
r -t 0.240469473684211 -s 0 -d 1 -p tcp -e 1040 -c 0 -i 17 -a 0 -x {0.0 2.0 11 ------- null}
+ -t 0.240469473684211 -s 1 -d 2 -p tcp -e 1040 -c 0 -i 17 -a 0 -x {0.0 2.0 11 ------- null}
r -t 0.241509473684211 -s 0 -d 1 -p tcp -e 1040 -c 0 -i 18 -a 0 -x {0.0 2.0 12 ------- null}
+ -t 0.241509473684211 -s 1 -d 2 -p tcp -e 1040 -c 0 -i 18 -a 0 -x {0.0 2.0 12 ------- null}
d -t 0.241509473684211 -s 1 -d 2 -p tcp -e 1040 -c 0 -i 18 -a 0 -x {0.0 2.0 12 ------- null}
r -t 0.241768421052632 -s 2 -d 1 -p ack -e 40 -c 0 -i 19 -a 0 -x {2.0 0.0 6 ------- null}
+ -t 0.241768421052632 -s 1 -d 0 -p ack -e 40 -c 0 -i 19 -a 0 -x {2.0 0.0 6 ------- null}
- -t 0.241768421052632 -s 1 -d 0 -p ack -e 40 -c 0 -i 19 -a 0 -x {2.0 0.0 6 ------- null}
h -t 0.241768421052632 -s 1 -d 0 -p ack -e 40 -c 0 -i 19 -a 0 -x {2.0 0.0 -1 ------- null}
- -t 0.241978947368421 -s 1 -d 2 -p tcp -e 1040 -c 0 -i 12 -a 0 -x {0.0 2.0 8 ------- null}
h -t 0.241978947368421 -s 1 -d 2 -p tcp -e 1040 -c 0 -i 12 -a 0 -x {0.0 2.0 -1 ------- null}
r -t 0.242808421052632 -s 1 -d 0 -p ack -e 40 -c 0 -i 19 -a 0 -x {2.0 0.0 6 ------- null}
+ -t 0.242808421052632 -s 0 -d 1 -p tcp -e 1040 -c 0 -i 20 -a 0 -x {0.0 2.0 13 ------- null}
- -t 0.242808421052632 -s 0 -d 1 -p tcp -e 1040 -c 0 -i 20 -a 0 -x {0.0 2.0 13 ------- null}
h -t 0.242808421052632 -s 0 -d 1 -p tcp -e 1040 -c 0 -i 20 -a 0 -x {0.0 2.0 -1 ------- null}
+ -t 0.242808421052632 -s 0 -d 1 -p tcp -e 1040 -c 0 -i 21 -a 0 -x {0.0 2.0 14 ------- null}
- -t 0.243848421052632 -s 0 -d 1 -p tcp -e 1040 -c 0 -i 21 -a 0 -x {0.0 2.0 14 ------- null}
h -t 0.243848421052632 -s 0 -d 1 -p tcp -e 1040 -c 0 -i 21 -a 0 -x {0.0 2.0 -1 ------- null}
r -t 0.243978947368421 -s 1 -d 2 -p tcp -e 1040 -c 0 -i 11 -a 0 -x {0.0 2.0 7 ------- null}
+ -t 0.243978947368421 -s 2 -d 1 -p ack -e 40 -c 0 -i 22 -a 0 -x {2.0 0.0 7 ------- null}
- -t 0.243978947368421 -s 2 -d 1 -p ack -e 40 -c 0 -i 22 -a 0 -x {2.0 0.0 7 ------- null}
h -t 0.243978947368421 -s 2 -d 1 -p ack -e 40 -c 0 -i 22 -a 0 -x {2.0 0.0 -1 ------- null}
r -t 0.244848421052632 -s 0 -d 1 -p tcp -e 1040 -c 0 -i 20 -a 0 -x {0.0 2.0 13 ------- null}
+ -t 0.244848421052632 -s 1 -d 2 -p tcp -e 1040 -c 0 -i 20 -a 0 -x {0.0 2.0 13 ------- null}
r -t 0.245888421052632 -s 0 -d 1 -p tcp -e 1040 -c 0 -i 21 -a 0 -x {0.0 2.0 14 ------- null}
+ -t 0.245888421052632 -s 1 -d 2 -p tcp -e 1040 -c 0 -i 21 -a 0 -x {0.0 2.0 14 ------- null}
d -t 0.245888421052632 -s 1 -d 2 -p tcp -e 1040 -c 0 -i 21 -a 0 -x {0.0 2.0 14 ------- null}
r -t 0.246147368421053 -s 2 -d 1 -p ack -e 40 -c 0 -i 22 -a 0 -x {2.0 0.0 7 ------- null}
+ -t 0.246147368421053 -s 1 -d 0 -p ack -e 40 -c 0 -i 22 -a 0 -x {2.0 0.0 7 ------- null}
- -t 0.246147368421053 -s 1 -d 0 -p ack -e 40 -c 0 -i 22 -a 0 -x {2.0 0.0 7 ------- null}
h -t 0.246147368421053 -s 1 -d 0 -p ack -e 40 -c 0 -i 22 -a 0 -x {2.0 0.0 -1 ------- null}
- -t 0.246357894736842 -s 1 -d 2 -p tcp -e 1040 -c 0 -i 14 -a 0 -x {0.0 2.0 9 ------- null}
h -t 0.246357894736842 -s 1 -d 2 -p tcp -e 1040 -c 0 -i 14 -a 0 -x {0.0 2.0 -1 ------- null}
r -t 0.247187368421053 -s 1 -d 0 -p ack -e 40 -c 0 -i 22 -a 0 -x {2.0 0.0 7 ------- null}
+ -t 0.247187368421053 -s 0 -d 1 -p tcp -e 1040 -c 0 -i 23 -a 0 -x {0.0 2.0 15 ------- null}
- -t 0.247187368421053 -s 0 -d 1 -p tcp -e 1040 -c 0 -i 23 -a 0 -x {0.0 2.0 15 ------- null}
h -t 0.247187368421053 -s 0 -d 1 -p tcp -e 1040 -c 0 -i 23 -a 0 -x {0.0 2.0 -1 ------- null}
+ -t 0.247187368421053 -s 0 -d 1 -p tcp -e 1040 -c 0 -i 24 -a 0 -x {0.0 2.0 16 ------- null}
- -t 0.248227368421053 -s 0 -d 1 -p tcp -e 1040 -c 0 -i 24 -a 0 -x {0.0 2.0 16 ------- null}
h -t 0.248227368421053 -s 0 -d 1 -p tcp -e 1040 -c 0 -i 24 -a 0 -x {0.0 2.0 -1 ------- null}
r -t 0.248357894736842 -s 1 -d 2 -p tcp -e 1040 -c 0 -i 12 -a 0 -x {0.0 2.0 8 ------- null}
+ -t 0.248357894736842 -s 2 -d 1 -p ack -e 40 -c 0 -i 25 -a 0 -x {2.0 0.0 8 ------- null}
- -t 0.248357894736842 -s 2 -d 1 -p ack -e 40 -c 0 -i 25 -a 0 -x {2.0 0.0 8 ------- null}
h -t 0.248357894736842 -s 2 -d 1 -p ack -e 40 -c 0 -i 25 -a 0 -x {2.0 0.0 -1 ------- null}
r -t 0.249227368421053 -s 0 -d 1 -p tcp -e 1040 -c 0 -i 23 -a 0 -x {0.0 2.0 15 ------- null}
+ -t 0.249227368421053 -s 1 -d 2 -p tcp -e 1040 -c 0 -i 23 -a 0 -x {0.0 2.0 15 ------- null}
r -t 0.250267368421053 -s 0 -d 1 -p tcp -e 1040 -c 0 -i 24 -a 0 -x {0.0 2.0 16 ------- null}
+ -t 0.250267368421053 -s 1 -d 2 -p tcp -e 1040 -c 0 -i 24 -a 0 -x {0.0 2.0 16 ------- null}
d -t 0.250267368421053 -s 1 -d 2 -p tcp -e 1040 -c 0 -i 24 -a 0 -x {0.0 2.0 16 ------- null}
r -t 0.250526315789474 -s 2 -d 1 -p ack -e 40 -c 0 -i 25 -a 0 -x {2.0 0.0 8 ------- null}
+ -t 0.250526315789474 -s 1 -d 0 -p ack -e 40 -c 0 -i 25 -a 0 -x {2.0 0.0 8 ------- null}
- -t 0.250526315789474 -s 1 -d 0 -p ack -e 40 -c 0 -i 25 -a 0 -x {2.0 0.0 8 ------- null}
h -t 0.250526315789474 -s 1 -d 0 -p ack -e 40 -c 0 -i 25 -a 0 -x {2.0 0.0 -1 ------- null}
- -t 0.250736842105263 -s 1 -d 2 -p tcp -e 1040 -c 0 -i 15 -a 0 -x {0.0 2.0 10 ------- null}
h -t 0.250736842105263 -s 1 -d 2 -p tcp -e 1040 -c 0 -i 15 -a 0 -x {0.0 2.0 -1 ------- null}
r -t 0.251566315789474 -s 1 -d 0 -p ack -e 40 -c 0 -i 25 -a 0 -x {2.0 0.0 8 ------- null}
+ -t 0.251566315789474 -s 0 -d 1 -p tcp -e 1040 -c 0 -i 26 -a 0 -x {0.0 2.0 17 ------- null}
- -t 0.251566315789474 -s 0 -d 1 -p tcp -e 1040 -c 0 -i 26 -a 0 -x {0.0 2.0 17 ------- null}
h -t 0.251566315789474 -s 0 -d 1 -p tcp -e 1040 -c 0 -i 26 -a 0 -x {0.0 2.0 -1 ------- null}
+ -t 0.251566315789474 -s 0 -d 1 -p tcp -e 1040 -c 0 -i 27 -a 0 -x {0.0 2.0 18 ------- null}
- -t 0.252606315789474 -s 0 -d 1 -p tcp -e 1040 -c 0 -i 27 -a 0 -x {0.0 2.0 18 ------- null}
h -t 0.252606315789474 -s 0 -d 1 -p tcp -e 1040 -c 0 -i 27 -a 0 -x {0.0 2.0 -1 ------- null}
r -t 0.252736842105263 -s 1 -d 2 -p tcp -e 1040 -c 0 -i 14 -a 0 -x {0.0 2.0 9 ------- null}
+ -t 0.252736842105263 -s 2 -d 1 -p ack -e 40 -c 0 -i 28 -a 0 -x {2.0 0.0 9 ------- null}
- -t 0.252736842105263 -s 2 -d 1 -p ack -e 40 -c 0 -i 28 -a 0 -x {2.0 0.0 9 ------- null}
h -t 0.252736842105263 -s 2 -d 1 -p ack -e 40 -c 0 -i 28 -a 0 -x {2.0 0.0 -1 ------- null}
r -t 0.253606315789474 -s 0 -d 1 -p tcp -e 1040 -c 0 -i 26 -a 0 -x {0.0 2.0 17 ------- null}
+ -t 0.253606315789474 -s 1 -d 2 -p tcp -e 1040 -c 0 -i 26 -a 0 -x {0.0 2.0 17 ------- null}
r -t 0.254646315789474 -s 0 -d 1 -p tcp -e 1040 -c 0 -i 27 -a 0 -x {0.0 2.0 18 ------- null}
+ -t 0.254646315789474 -s 1 -d 2 -p tcp -e 1040 -c 0 -i 27 -a 0 -x {0.0 2.0 18 ------- null}
d -t 0.254646315789474 -s 1 -d 2 -p tcp -e 1040 -c 0 -i 27 -a 0 -x {0.0 2.0 18 ------- null}
r -t 0.254905263157895 -s 2 -d 1 -p ack -e 40 -c 0 -i 28 -a 0 -x {2.0 0.0 9 ------- null}
+ -t 0.254905263157895 -s 1 -d 0 -p ack -e 40 -c 0 -i 28 -a 0 -x {2.0 0.0 9 ------- null}
- -t 0.254905263157895 -s 1 -d 0 -p ack -e 40 -c 0 -i 28 -a 0 -x {2.0 0.0 9 ------- null}
h -t 0.254905263157895 -s 1 -d 0 -p ack -e 40 -c 0 -i 28 -a 0 -x {2.0 0.0 -1 ------- null}
- -t 0.255115789473684 -s 1 -d 2 -p tcp -e 1040 -c 0 -i 17 -a 0 -x {0.0 2.0 11 ------- null}
h -t 0.255115789473684 -s 1 -d 2 -p tcp -e 1040 -c 0 -i 17 -a 0 -x {0.0 2.0 -1 ------- null}
r -t 0.255945263157895 -s 1 -d 0 -p ack -e 40 -c 0 -i 28 -a 0 -x {2.0 0.0 9 ------- null}
+ -t 0.255945263157895 -s 0 -d 1 -p tcp -e 1040 -c 0 -i 29 -a 0 -x {0.0 2.0 19 ------- null}
- -t 0.255945263157895 -s 0 -d 1 -p tcp -e 1040 -c 0 -i 29 -a 0 -x {0.0 2.0 19 ------- null}
h -t 0.255945263157895 -s 0 -d 1 -p tcp -e 1040 -c 0 -i 29 -a 0 -x {0.0 2.0 -1 ------- null}
+ -t 0.255945263157895 -s 0 -d 1 -p tcp -e 1040 -c 0 -i 30 -a 0 -x {0.0 2.0 20 ------- null}
- -t 0.256985263157895 -s 0 -d 1 -p tcp -e 1040 -c 0 -i 30 -a 0 -x {0.0 2.0 20 ------- null}
h -t 0.256985263157895 -s 0 -d 1 -p tcp -e 1040 -c 0 -i 30 -a 0 -x {0.0 2.0 -1 ------- null}
r -t 0.257115789473684 -s 1 -d 2 -p tcp -e 1040 -c 0 -i 15 -a 0 -x {0.0 2.0 10 ------- null}
+ -t 0.257115789473684 -s 2 -d 1 -p ack -e 40 -c 0 -i 31 -a 0 -x {2.0 0.0 10 ------- null}
- -t 0.257115789473684 -s 2 -d 1 -p ack -e 40 -c 0 -i 31 -a 0 -x {2.0 0.0 10 ------- null}
h -t 0.257115789473684 -s 2 -d 1 -p ack -e 40 -c 0 -i 31 -a 0 -x {2.0 0.0 -1 ------- null}
r -t 0.257985263157895 -s 0 -d 1 -p tcp -e 1040 -c 0 -i 29 -a 0 -x {0.0 2.0 19 ------- null}
+ -t 0.257985263157895 -s 1 -d 2 -p tcp -e 1040 -c 0 -i 29 -a 0 -x {0.0 2.0 19 ------- null}
r -t 0.259025263157895 -s 0 -d 1 -p tcp -e 1040 -c 0 -i 30 -a 0 -x {0.0 2.0 20 ------- null}
+ -t 0.259025263157895 -s 1 -d 2 -p tcp -e 1040 -c 0 -i 30 -a 0 -x {0.0 2.0 20 ------- null}
d -t 0.259025263157895 -s 1 -d 2 -p tcp -e 1040 -c 0 -i 30 -a 0 -x {0.0 2.0 20 ------- null}
r -t 0.259284210526316 -s 2 -d 1 -p ack -e 40 -c 0 -i 31 -a 0 -x {2.0 0.0 10 ------- null}
+ -t 0.259284210526316 -s 1 -d 0 -p ack -e 40 -c 0 -i 31 -a 0 -x {2.0 0.0 10 ------- null}
- -t 0.259284210526316 -s 1 -d 0 -p ack -e 40 -c 0 -i 31 -a 0 -x {2.0 0.0 10 ------- null}
h -t 0.259284210526316 -s 1 -d 0 -p ack -e 40 -c 0 -i 31 -a 0 -x {2.0 0.0 -1 ------- null}
- -t 0.259494736842105 -s 1 -d 2 -p tcp -e 1040 -c 0 -i 20 -a 0 -x {0.0 2.0 13 ------- null}
h -t 0.259494736842105 -s 1 -d 2 -p tcp -e 1040 -c 0 -i 20 -a 0 -x {0.0 2.0 -1 ------- null}
r -t 0.260324210526316 -s 1 -d 0 -p ack -e 40 -c 0 -i 31 -a 0 -x {2.0 0.0 10 ------- null}
+ -t 0.260324210526316 -s 0 -d 1 -p tcp -e 1040 -c 0 -i 32 -a 0 -x {0.0 2.0 21 ------- null}
- -t 0.260324210526316 -s 0 -d 1 -p tcp -e 1040 -c 0 -i 32 -a 0 -x {0.0 2.0 21 ------- null}
h -t 0.260324210526316 -s 0 -d 1 -p tcp -e 1040 -c 0 -i 32 -a 0 -x {0.0 2.0 -1 ------- null}
+ -t 0.260324210526316 -s 0 -d 1 -p tcp -e 1040 -c 0 -i 33 -a 0 -x {0.0 2.0 22 ------- null}
- -t 0.261364210526316 -s 0 -d 1 -p tcp -e 1040 -c 0 -i 33 -a 0 -x {0.0 2.0 22 ------- null}
h -t 0.261364210526316 -s 0 -d 1 -p tcp -e 1040 -c 0 -i 33 -a 0 -x {0.0 2.0 -1 ------- null}
r -t 0.261494736842105 -s 1 -d 2 -p tcp -e 1040 -c 0 -i 17 -a 0 -x {0.0 2.0 11 ------- null}
+ -t 0.261494736842105 -s 2 -d 1 -p ack -e 40 -c 0 -i 34 -a 0 -x {2.0 0.0 11 ------- null}
- -t 0.261494736842105 -s 2 -d 1 -p ack -e 40 -c 0 -i 34 -a 0 -x {2.0 0.0 11 ------- null}
h -t 0.261494736842105 -s 2 -d 1 -p ack -e 40 -c 0 -i 34 -a 0 -x {2.0 0.0 -1 ------- null}
r -t 0.262364210526316 -s 0 -d 1 -p tcp -e 1040 -c 0 -i 32 -a 0 -x {0.0 2.0 21 ------- null}
+ -t 0.262364210526316 -s 1 -d 2 -p tcp -e 1040 -c 0 -i 32 -a 0 -x {0.0 2.0 21 ------- null}
r -t 0.263404210526316 -s 0 -d 1 -p tcp -e 1040 -c 0 -i 33 -a 0 -x {0.0 2.0 22 ------- null}
+ -t 0.263404210526316 -s 1 -d 2 -p tcp -e 1040 -c 0 -i 33 -a 0 -x {0.0 2.0 22 ------- null}
d -t 0.263404210526316 -s 1 -d 2 -p tcp -e 1040 -c 0 -i 33 -a 0 -x {0.0 2.0 22 ------- null}
r -t 0.263663157894737 -s 2 -d 1 -p ack -e 40 -c 0 -i 34 -a 0 -x {2.0 0.0 11 ------- null}
+ -t 0.263663157894737 -s 1 -d 0 -p ack -e 40 -c 0 -i 34 -a 0 -x {2.0 0.0 11 ------- null}
- -t 0.263663157894737 -s 1 -d 0 -p ack -e 40 -c 0 -i 34 -a 0 -x {2.0 0.0 11 ------- null}
h -t 0.263663157894737 -s 1 -d 0 -p ack -e 40 -c 0 -i 34 -a 0 -x {2.0 0.0 -1 ------- null}
- -t 0.263873684210526 -s 1 -d 2 -p tcp -e 1040 -c 0 -i 23 -a 0 -x {0.0 2.0 15 ------- null}
h -t 0.263873684210526 -s 1 -d 2 -p tcp -e 1040 -c 0 -i 23 -a 0 -x {0.0 2.0 -1 ------- null}
r -t 0.264703157894737 -s 1 -d 0 -p ack -e 40 -c 0 -i 34 -a 0 -x {2.0 0.0 11 ------- null}
+ -t 0.264703157894737 -s 0 -d 1 -p tcp -e 1040 -c 0 -i 35 -a 0 -x {0.0 2.0 23 ------- null}
- -t 0.264703157894737 -s 0 -d 1 -p tcp -e 1040 -c 0 -i 35 -a 0 -x {0.0 2.0 23 ------- null}
h -t 0.264703157894737 -s 0 -d 1 -p tcp -e 1040 -c 0 -i 35 -a 0 -x {0.0 2.0 -1 ------- null}
+ -t 0.264703157894737 -s 0 -d 1 -p tcp -e 1040 -c 0 -i 36 -a 0 -x {0.0 2.0 24 ------- null}
- -t 0.265743157894737 -s 0 -d 1 -p tcp -e 1040 -c 0 -i 36 -a 0 -x {0.0 2.0 24 ------- null}
h -t 0.265743157894737 -s 0 -d 1 -p tcp -e 1040 -c 0 -i 36 -a 0 -x {0.0 2.0 -1 ------- null}
r -t 0.265873684210526 -s 1 -d 2 -p tcp -e 1040 -c 0 -i 20 -a 0 -x {0.0 2.0 13 ------- null}
+ -t 0.265873684210526 -s 2 -d 1 -p ack -e 40 -c 0 -i 37 -a 0 -x {2.0 0.0 11 ------- null}
- -t 0.265873684210526 -s 2 -d 1 -p ack -e 40 -c 0 -i 37 -a 0 -x {2.0 0.0 11 ------- null}
h -t 0.265873684210526 -s 2 -d 1 -p ack -e 40 -c 0 -i 37 -a 0 -x {2.0 0.0 -1 ------- null}
r -t 0.266743157894737 -s 0 -d 1 -p tcp -e 1040 -c 0 -i 35 -a 0 -x {0.0 2.0 23 ------- null}
+ -t 0.266743157894737 -s 1 -d 2 -p tcp -e 1040 -c 0 -i 35 -a 0 -x {0.0 2.0 23 ------- null}
r -t 0.267783157894737 -s 0 -d 1 -p tcp -e 1040 -c 0 -i 36 -a 0 -x {0.0 2.0 24 ------- null}
+ -t 0.267783157894737 -s 1 -d 2 -p tcp -e 1040 -c 0 -i 36 -a 0 -x {0.0 2.0 24 ------- null}
d -t 0.267783157894737 -s 1 -d 2 -p tcp -e 1040 -c 0 -i 36 -a 0 -x {0.0 2.0 24 ------- null}
r -t 0.268042105263158 -s 2 -d 1 -p ack -e 40 -c 0 -i 37 -a 0 -x {2.0 0.0 11 ------- null}
+ -t 0.268042105263158 -s 1 -d 0 -p ack -e 40 -c 0 -i 37 -a 0 -x {2.0 0.0 11 ------- null}
- -t 0.268042105263158 -s 1 -d 0 -p ack -e 40 -c 0 -i 37 -a 0 -x {2.0 0.0 11 ------- null}
h -t 0.268042105263158 -s 1 -d 0 -p ack -e 40 -c 0 -i 37 -a 0 -x {2.0 0.0 -1 ------- null}
- -t 0.268252631578947 -s 1 -d 2 -p tcp -e 1040 -c 0 -i 26 -a 0 -x {0.0 2.0 17 ------- null}
h -t 0.268252631578947 -s 1 -d 2 -p tcp -e 1040 -c 0 -i 26 -a 0 -x {0.0 2.0 -1 ------- null}
r -t 0.269082105263158 -s 1 -d 0 -p ack -e 40 -c 0 -i 37 -a 0 -x {2.0 0.0 11 ------- null}
+ -t 0.269082105263158 -s 0 -d 1 -p tcp -e 1040 -c 0 -i 38 -a 0 -x {0.0 2.0 25 ------- null}
- -t 0.269082105263158 -s 0 -d 1 -p tcp -e 1040 -c 0 -i 38 -a 0 -x {0.0 2.0 25 ------- null}
h -t 0.269082105263158 -s 0 -d 1 -p tcp -e 1040 -c 0 -i 38 -a 0 -x {0.0 2.0 -1 ------- null}
r -t 0.270252631578947 -s 1 -d 2 -p tcp -e 1040 -c 0 -i 23 -a 0 -x {0.0 2.0 15 ------- null}
+ -t 0.270252631578947 -s 2 -d 1 -p ack -e 40 -c 0 -i 39 -a 0 -x {2.0 0.0 11 ------- null}
- -t 0.270252631578947 -s 2 -d 1 -p ack -e 40 -c 0 -i 39 -a 0 -x {2.0 0.0 11 ------- null}
h -t 0.270252631578947 -s 2 -d 1 -p ack -e 40 -c 0 -i 39 -a 0 -x {2.0 0.0 -1 ------- null}
r -t 0.271122105263158 -s 0 -d 1 -p tcp -e 1040 -c 0 -i 38 -a 0 -x {0.0 2.0 25 ------- null}
+ -t 0.271122105263158 -s 1 -d 2 -p tcp -e 1040 -c 0 -i 38 -a 0 -x {0.0 2.0 25 ------- null}
r -t 0.272421052631579 -s 2 -d 1 -p ack -e 40 -c 0 -i 39 -a 0 -x {2.0 0.0 11 ------- null}
+ -t 0.272421052631579 -s 1 -d 0 -p ack -e 40 -c 0 -i 39 -a 0 -x {2.0 0.0 11 ------- null}
- -t 0.272421052631579 -s 1 -d 0 -p ack -e 40 -c 0 -i 39 -a 0 -x {2.0 0.0 11 ------- null}
h -t 0.272421052631579 -s 1 -d 0 -p ack -e 40 -c 0 -i 39 -a 0 -x {2.0 0.0 -1 ------- null}
- -t 0.272631578947368 -s 1 -d 2 -p tcp -e 1040 -c 0 -i 29 -a 0 -x {0.0 2.0 19 ------- null}
h -t 0.272631578947368 -s 1 -d 2 -p tcp -e 1040 -c 0 -i 29 -a 0 -x {0.0 2.0 -1 ------- null}
r -t 0.273461052631579 -s 1 -d 0 -p ack -e 40 -c 0 -i 39 -a 0 -x {2.0 0.0 11 ------- null}
+ -t 0.273461052631579 -s 0 -d 1 -p tcp -e 1040 -c 0 -i 40 -a 0 -x {0.0 2.0 26 ------- null}
- -t 0.273461052631579 -s 0 -d 1 -p tcp -e 1040 -c 0 -i 40 -a 0 -x {0.0 2.0 26 ------- null}
h -t 0.273461052631579 -s 0 -d 1 -p tcp -e 1040 -c 0 -i 40 -a 0 -x {0.0 2.0 -1 ------- null}
r -t 0.274631578947368 -s 1 -d 2 -p tcp -e 1040 -c 0 -i 26 -a 0 -x {0.0 2.0 17 ------- null}
+ -t 0.274631578947368 -s 2 -d 1 -p ack -e 40 -c 0 -i 41 -a 0 -x {2.0 0.0 11 ------- null}
- -t 0.274631578947368 -s 2 -d 1 -p ack -e 40 -c 0 -i 41 -a 0 -x {2.0 0.0 11 ------- null}
h -t 0.274631578947368 -s 2 -d 1 -p ack -e 40 -c 0 -i 41 -a 0 -x {2.0 0.0 -1 ------- null}
r -t 0.275501052631579 -s 0 -d 1 -p tcp -e 1040 -c 0 -i 40 -a 0 -x {0.0 2.0 26 ------- null}
+ -t 0.275501052631579 -s 1 -d 2 -p tcp -e 1040 -c 0 -i 40 -a 0 -x {0.0 2.0 26 ------- null}
r -t 0.2768 -s 2 -d 1 -p ack -e 40 -c 0 -i 41 -a 0 -x {2.0 0.0 11 ------- null}
+ -t 0.2768 -s 1 -d 0 -p ack -e 40 -c 0 -i 41 -a 0 -x {2.0 0.0 11 ------- null}
- -t 0.2768 -s 1 -d 0 -p ack -e 40 -c 0 -i 41 -a 0 -x {2.0 0.0 11 ------- null}
h -t 0.2768 -s 1 -d 0 -p ack -e 40 -c 0 -i 41 -a 0 -x {2.0 0.0 -1 ------- null}
- -t 0.277010526315789 -s 1 -d 2 -p tcp -e 1040 -c 0 -i 32 -a 0 -x {0.0 2.0 21 ------- null}
h -t 0.277010526315789 -s 1 -d 2 -p tcp -e 1040 -c 0 -i 32 -a 0 -x {0.0 2.0 -1 ------- null}
r -t 0.27784 -s 1 -d 0 -p ack -e 40 -c 0 -i 41 -a 0 -x {2.0 0.0 11 ------- null}
+ -t 0.27784 -s 0 -d 1 -p tcp -e 1040 -c 0 -i 42 -a 0 -x {0.0 2.0 12 ---A--- null}
- -t 0.27784 -s 0 -d 1 -p tcp -e 1040 -c 0 -i 42 -a 0 -x {0.0 2.0 12 ---A--- null}
h -t 0.27784 -s 0 -d 1 -p tcp -e 1040 -c 0 -i 42 -a 0 -x {0.0 2.0 -1 ---A--- null}
r -t 0.279010526315789 -s 1 -d 2 -p tcp -e 1040 -c 0 -i 29 -a 0 -x {0.0 2.0 19 ------- null}
+ -t 0.279010526315789 -s 2 -d 1 -p ack -e 40 -c 0 -i 43 -a 0 -x {2.0 0.0 11 ------- null}
- -t 0.279010526315789 -s 2 -d 1 -p ack -e 40 -c 0 -i 43 -a 0 -x {2.0 0.0 11 ------- null}
h -t 0.279010526315789 -s 2 -d 1 -p ack -e 40 -c 0 -i 43 -a 0 -x {2.0 0.0 -1 ------- null}
r -t 0.27988 -s 0 -d 1 -p tcp -e 1040 -c 0 -i 42 -a 0 -x {0.0 2.0 12 ---A--- null}
+ -t 0.27988 -s 1 -d 2 -p tcp -e 1040 -c 0 -i 42 -a 0 -x {0.0 2.0 12 ---A--- null}
r -t 0.281178947368421 -s 2 -d 1 -p ack -e 40 -c 0 -i 43 -a 0 -x {2.0 0.0 11 ------- null}
+ -t 0.281178947368421 -s 1 -d 0 -p ack -e 40 -c 0 -i 43 -a 0 -x {2.0 0.0 11 ------- null}
- -t 0.281178947368421 -s 1 -d 0 -p ack -e 40 -c 0 -i 43 -a 0 -x {2.0 0.0 11 ------- null}
h -t 0.281178947368421 -s 1 -d 0 -p ack -e 40 -c 0 -i 43 -a 0 -x {2.0 0.0 -1 ------- null}
- -t 0.28138947368421 -s 1 -d 2 -p tcp -e 1040 -c 0 -i 35 -a 0 -x {0.0 2.0 23 ------- null}