n -t 0 -s 0 -S DLABEL -l "TCP Source" -L ""
n -t 0 -s 2 -S DLABEL -l "TCP Sink" -L ""
V -t * -v 1.0a5 -a 0
A -t * -n 1 -p 0 -o 0x7fffffff -c 30 -a 1
A -t * -h 1 -m 1073741823 -s 0
n -t * -a 4 -s 4 -S UP -v circle -c black -i black
n -t * -a 0 -s 0 -S UP -v circle -c black -i black
n -t * -a 1 -s 1 -S UP -v circle -c black -i black
n -t * -a 2 -s 2 -S UP -v circle -c black -i black
n -t * -a 3 -s 3 -S UP -v circle -c black -i black
l -t * -s 0 -d 1 -S UP -r 8000000 -D 0.001 -c black
l -t * -s 1 -d 3 -S UP -r 7000000 -D 0.001 -c black
l -t * -s 3 -d 4 -S UP -r 2000000 -D 0.001 -c black
l -t * -s 4 -d 2 -S UP -r 3000000 -D 0.001 -c black
+ -t 0.2 -s 0 -d 1 -p tcp -e 40 -c 0 -i 0 -a 0 -x {0.0 2.0 0 ------- null}
- -t 0.2 -s 0 -d 1 -p tcp -e 40 -c 0 -i 0 -a 0 -x {0.0 2.0 0 ------- null}
h -t 0.2 -s 0 -d 1 -p tcp -e 40 -c 0 -i 0 -a 0 -x {0.0 2.0 -1 ------- null}
r -t 0.20104 -s 0 -d 1 -p tcp -e 40 -c 0 -i 0 -a 0 -x {0.0 2.0 0 ------- null}
+ -t 0.20104 -s 1 -d 3 -p tcp -e 40 -c 0 -i 0 -a 0 -x {0.0 2.0 0 ------- null}
- -t 0.20104 -s 1 -d 3 -p tcp -e 40 -c 0 -i 0 -a 0 -x {0.0 2.0 0 ------- null}
h -t 0.20104 -s 1 -d 3 -p tcp -e 40 -c 0 -i 0 -a 0 -x {0.0 2.0 -1 ------- null}
r -t 0.202085714285714 -s 1 -d 3 -p tcp -e 40 -c 0 -i 0 -a 0 -x {0.0 2.0 0 ------- null}
+ -t 0.202085714285714 -s 3 -d 4 -p tcp -e 40 -c 0 -i 0 -a 0 -x {0.0 2.0 0 ------- null}
- -t 0.202085714285714 -s 3 -d 4 -p tcp -e 40 -c 0 -i 0 -a 0 -x {0.0 2.0 0 ------- null}
h -t 0.202085714285714 -s 3 -d 4 -p tcp -e 40 -c 0 -i 0 -a 0 -x {0.0 2.0 -1 ------- null}
r -t 0.203245714285714 -s 3 -d 4 -p tcp -e 40 -c 0 -i 0 -a 0 -x {0.0 2.0 0 ------- null}
+ -t 0.203245714285714 -s 4 -d 2 -p tcp -e 40 -c 0 -i 0 -a 0 -x {0.0 2.0 0 ------- null}
- -t 0.203245714285714 -s 4 -d 2 -p tcp -e 40 -c 0 -i 0 -a 0 -x {0.0 2.0 0 ------- null}
h -t 0.203245714285714 -s 4 -d 2 -p tcp -e 40 -c 0 -i 0 -a 0 -x {0.0 2.0 -1 ------- null}
r -t 0.204352380952381 -s 4 -d 2 -p tcp -e 40 -c 0 -i 0 -a 0 -x {0.0 2.0 0 ------- null}
+ -t 0.204352380952381 -s 2 -d 4 -p ack -e 40 -c 0 -i 1 -a 0 -x {2.0 0.0 0 ------- null}
- -t 0.204352380952381 -s 2 -d 4 -p ack -e 40 -c 0 -i 1 -a 0 -x {2.0 0.0 0 ------- null}
h -t 0.204352380952381 -s 2 -d 4 -p ack -e 40 -c 0 -i 1 -a 0 -x {2.0 0.0 -1 ------- null}
r -t 0.205459047619048 -s 2 -d 4 -p ack -e 40 -c 0 -i 1 -a 0 -x {2.0 0.0 0 ------- null}
+ -t 0.205459047619048 -s 4 -d 3 -p ack -e 40 -c 0 -i 1 -a 0 -x {2.0 0.0 0 ------- null}
- -t 0.205459047619048 -s 4 -d 3 -p ack -e 40 -c 0 -i 1 -a 0 -x {2.0 0.0 0 ------- null}
h -t 0.205459047619048 -s 4 -d 3 -p ack -e 40 -c 0 -i 1 -a 0 -x {2.0 0.0 -1 ------- null}
r -t 0.206619047619048 -s 4 -d 3 -p ack -e 40 -c 0 -i 1 -a 0 -x {2.0 0.0 0 ------- null}
+ -t 0.206619047619048 -s 3 -d 1 -p ack -e 40 -c 0 -i 1 -a 0 -x {2.0 0.0 0 ------- null}
- -t 0.206619047619048 -s 3 -d 1 -p ack -e 40 -c 0 -i 1 -a 0 -x {2.0 0.0 0 ------- null}
h -t 0.206619047619048 -s 3 -d 1 -p ack -e 40 -c 0 -i 1 -a 0 -x {2.0 0.0 -1 ------- null}
r -t 0.207664761904762 -s 3 -d 1 -p ack -e 40 -c 0 -i 1 -a 0 -x {2.0 0.0 0 ------- null}
+ -t 0.207664761904762 -s 1 -d 0 -p ack -e 40 -c 0 -i 1 -a 0 -x {2.0 0.0 0 ------- null}
- -t 0.207664761904762 -s 1 -d 0 -p ack -e 40 -c 0 -i 1 -a 0 -x {2.0 0.0 0 ------- null}
h -t 0.207664761904762 -s 1 -d 0 -p ack -e 40 -c 0 -i 1 -a 0 -x {2.0 0.0 -1 ------- null}
r -t 0.208704761904762 -s 1 -d 0 -p ack -e 40 -c 0 -i 1 -a 0 -x {2.0 0.0 0 ------- null}
+ -t 0.208704761904762 -s 0 -d 1 -p tcp -e 1040 -c 0 -i 2 -a 0 -x {0.0 2.0 1 ------- null}
- -t 0.208704761904762 -s 0 -d 1 -p tcp -e 1040 -c 0 -i 2 -a 0 -x {0.0 2.0 1 ------- null}
h -t 0.208704761904762 -s 0 -d 1 -p tcp -e 1040 -c 0 -i 2 -a 0 -x {0.0 2.0 -1 ------- null}
+ -t 0.208704761904762 -s 0 -d 1 -p tcp -e 1040 -c 0 -i 3 -a 0 -x {0.0 2.0 2 ------- null}
- -t 0.209744761904762 -s 0 -d 1 -p tcp -e 1040 -c 0 -i 3 -a 0 -x {0.0 2.0 2 ------- null}
h -t 0.209744761904762 -s 0 -d 1 -p tcp -e 1040 -c 0 -i 3 -a 0 -x {0.0 2.0 -1 ------- null}
r -t 0.210744761904762 -s 0 -d 1 -p tcp -e 1040 -c 0 -i 2 -a 0 -x {0.0 2.0 1 ------- null}
+ -t 0.210744761904762 -s 1 -d 3 -p tcp -e 1040 -c 0 -i 2 -a 0 -x {0.0 2.0 1 ------- null}
- -t 0.210744761904762 -s 1 -d 3 -p tcp -e 1040 -c 0 -i 2 -a 0 -x {0.0 2.0 1 ------- null}
h -t 0.210744761904762 -s 1 -d 3 -p tcp -e 1040 -c 0 -i 2 -a 0 -x {0.0 2.0 -1 ------- null}
r -t 0.211784761904762 -s 0 -d 1 -p tcp -e 1040 -c 0 -i 3 -a 0 -x {0.0 2.0 2 ------- null}
+ -t 0.211784761904762 -s 1 -d 3 -p tcp -e 1040 -c 0 -i 3 -a 0 -x {0.0 2.0 2 ------- null}
- -t 0.211933333333333 -s 1 -d 3 -p tcp -e 1040 -c 0 -i 3 -a 0 -x {0.0 2.0 2 ------- null}
h -t 0.211933333333333 -s 1 -d 3 -p tcp -e 1040 -c 0 -i 3 -a 0 -x {0.0 2.0 -1 ------- null}
r -t 0.212933333333333 -s 1 -d 3 -p tcp -e 1040 -c 0 -i 2 -a 0 -x {0.0 2.0 1 ------- null}
+ -t 0.212933333333333 -s 3 -d 4 -p tcp -e 1040 -c 0 -i 2 -a 0 -x {0.0 2.0 1 ------- null}
- -t 0.212933333333333 -s 3 -d 4 -p tcp -e 1040 -c 0 -i 2 -a 0 -x {0.0 2.0 1 ------- null}
h -t 0.212933333333333 -s 3 -d 4 -p tcp -e 1040 -c 0 -i 2 -a 0 -x {0.0 2.0 -1 ------- null}
r -t 0.214121904761905 -s 1 -d 3 -p tcp -e 1040 -c 0 -i 3 -a 0 -x {0.0 2.0 2 ------- null}
+ -t 0.214121904761905 -s 3 -d 4 -p tcp -e 1040 -c 0 -i 3 -a 0 -x {0.0 2.0 2 ------- null}
- -t 0.217093333333333 -s 3 -d 4 -p tcp -e 1040 -c 0 -i 3 -a 0 -x {0.0 2.0 2 ------- null}
h -t 0.217093333333333 -s 3 -d 4 -p tcp -e 1040 -c 0 -i 3 -a 0 -x {0.0 2.0 -1 ------- null}
r -t 0.218093333333333 -s 3 -d 4 -p tcp -e 1040 -c 0 -i 2 -a 0 -x {0.0 2.0 1 ------- null}
+ -t 0.218093333333333 -s 4 -d 2 -p tcp -e 1040 -c 0 -i 2 -a 0 -x {0.0 2.0 1 ------- null}
- -t 0.218093333333333 -s 4 -d 2 -p tcp -e 1040 -c 0 -i 2 -a 0 -x {0.0 2.0 1 ------- null}
h -t 0.218093333333333 -s 4 -d 2 -p tcp -e 1040 -c 0 -i 2 -a 0 -x {0.0 2.0 -1 ------- null}
r -t 0.221866666666667 -s 4 -d 2 -p tcp -e 1040 -c 0 -i 2 -a 0 -x {0.0 2.0 1 ------- null}
+ -t 0.221866666666667 -s 2 -d 4 -p ack -e 40 -c 0 -i 4 -a 0 -x {2.0 0.0 1 ------- null}
- -t 0.221866666666667 -s 2 -d 4 -p ack -e 40 -c 0 -i 4 -a 0 -x {2.0 0.0 1 ------- null}
h -t 0.221866666666667 -s 2 -d 4 -p ack -e 40 -c 0 -i 4 -a 0 -x {2.0 0.0 -1 ------- null}
r -t 0.222253333333333 -s 3 -d 4 -p tcp -e 1040 -c 0 -i 3 -a 0 -x {0.0 2.0 2 ------- null}
+ -t 0.222253333333333 -s 4 -d 2 -p tcp -e 1040 -c 0 -i 3 -a 0 -x {0.0 2.0 2 ------- null}
- -t 0.222253333333333 -s 4 -d 2 -p tcp -e 1040 -c 0 -i 3 -a 0 -x {0.0 2.0 2 ------- null}
h -t 0.222253333333333 -s 4 -d 2 -p tcp -e 1040 -c 0 -i 3 -a 0 -x {0.0 2.0 -1 ------- null}
r -t 0.222973333333333 -s 2 -d 4 -p ack -e 40 -c 0 -i 4 -a 0 -x {2.0 0.0 1 ------- null}
+ -t 0.222973333333333 -s 4 -d 3 -p ack -e 40 -c 0 -i 4 -a 0 -x {2.0 0.0 1 ------- null}
- -t 0.222973333333333 -s 4 -d 3 -p ack -e 40 -c 0 -i 4 -a 0 -x {2.0 0.0 1 ------- null}
h -t 0.222973333333333 -s 4 -d 3 -p ack -e 40 -c 0 -i 4 -a 0 -x {2.0 0.0 -1 ------- null}
r -t 0.224133333333333 -s 4 -d 3 -p ack -e 40 -c 0 -i 4 -a 0 -x {2.0 0.0 1 ------- null}
+ -t 0.224133333333333 -s 3 -d 1 -p ack -e 40 -c 0 -i 4 -a 0 -x {2.0 0.0 1 ------- null}
- -t 0.224133333333333 -s 3 -d 1 -p ack -e 40 -c 0 -i 4 -a 0 -x {2.0 0.0 1 ------- null}
h -t 0.224133333333333 -s 3 -d 1 -p ack -e 40 -c 0 -i 4 -a 0 -x {2.0 0.0 -1 ------- null}
r -t 0.225179047619048 -s 3 -d 1 -p ack -e 40 -c 0 -i 4 -a 0 -x {2.0 0.0 1 ------- null}
+ -t 0.225179047619048 -s 1 -d 0 -p ack -e 40 -c 0 -i 4 -a 0 -x {2.0 0.0 1 ------- null}
- -t 0.225179047619048 -s 1 -d 0 -p ack -e 40 -c 0 -i 4 -a 0 -x {2.0 0.0 1 ------- null}
h -t 0.225179047619048 -s 1 -d 0 -p ack -e 40 -c 0 -i 4 -a 0 -x {2.0 0.0 -1 ------- null}
r -t 0.226026666666667 -s 4 -d 2 -p tcp -e 1040 -c 0 -i 3 -a 0 -x {0.0 2.0 2 ------- null}
+ -t 0.226026666666667 -s 2 -d 4 -p ack -e 40 -c 0 -i 5 -a 0 -x {2.0 0.0 2 ------- null}
- -t 0.226026666666667 -s 2 -d 4 -p ack -e 40 -c 0 -i 5 -a 0 -x {2.0 0.0 2 ------- null}
h -t 0.226026666666667 -s 2 -d 4 -p ack -e 40 -c 0 -i 5 -a 0 -x {2.0 0.0 -1 ------- null}
r -t 0.226219047619048 -s 1 -d 0 -p ack -e 40 -c 0 -i 4 -a 0 -x {2.0 0.0 1 ------- null}
+ -t 0.226219047619048 -s 0 -d 1 -p tcp -e 1040 -c 0 -i 6 -a 0 -x {0.0 2.0 3 ------- null}
- -t 0.226219047619048 -s 0 -d 1 -p tcp -e 1040 -c 0 -i 6 -a 0 -x {0.0 2.0 3 ------- null}
h -t 0.226219047619048 -s 0 -d 1 -p tcp -e 1040 -c 0 -i 6 -a 0 -x {0.0 2.0 -1 ------- null}
+ -t 0.226219047619048 -s 0 -d 1 -p tcp -e 1040 -c 0 -i 7 -a 0 -x {0.0 2.0 4 ------- null}
r -t 0.227133333333333 -s 2 -d 4 -p ack -e 40 -c 0 -i 5 -a 0 -x {2.0 0.0 2 ------- null}
+ -t 0.227133333333333 -s 4 -d 3 -p ack -e 40 -c 0 -i 5 -a 0 -x {2.0 0.0 2 ------- null}
- -t 0.227133333333333 -s 4 -d 3 -p ack -e 40 -c 0 -i 5 -a 0 -x {2.0 0.0 2 ------- null}
h -t 0.227133333333333 -s 4 -d 3 -p ack -e 40 -c 0 -i 5 -a 0 -x {2.0 0.0 -1 ------- null}
- -t 0.227259047619048 -s 0 -d 1 -p tcp -e 1040 -c 0 -i 7 -a 0 -x {0.0 2.0 4 ------- null}
h -t 0.227259047619048 -s 0 -d 1 -p tcp -e 1040 -c 0 -i 7 -a 0 -x {0.0 2.0 -1 ------- null}
r -t 0.228259047619048 -s 0 -d 1 -p tcp -e 1040 -c 0 -i 6 -a 0 -x {0.0 2.0 3 ------- null}
+ -t 0.228259047619048 -s 1 -d 3 -p tcp -e 1040 -c 0 -i 6 -a 0 -x {0.0 2.0 3 ------- null}
- -t 0.228259047619048 -s 1 -d 3 -p tcp -e 1040 -c 0 -i 6 -a 0 -x {0.0 2.0 3 ------- null}
h -t 0.228259047619048 -s 1 -d 3 -p tcp -e 1040 -c 0 -i 6 -a 0 -x {0.0 2.0 -1 ------- null}
r -t 0.228293333333333 -s 4 -d 3 -p ack -e 40 -c 0 -i 5 -a 0 -x {2.0 0.0 2 ------- null}
+ -t 0.228293333333333 -s 3 -d 1 -p ack -e 40 -c 0 -i 5 -a 0 -x {2.0 0.0 2 ------- null}
- -t 0.228293333333333 -s 3 -d 1 -p ack -e 40 -c 0 -i 5 -a 0 -x {2.0 0.0 2 ------- null}
h -t 0.228293333333333 -s 3 -d 1 -p ack -e 40 -c 0 -i 5 -a 0 -x {2.0 0.0 -1 ------- null}
r -t 0.229299047619048 -s 0 -d 1 -p tcp -e 1040 -c 0 -i 7 -a 0 -x {0.0 2.0 4 ------- null}
+ -t 0.229299047619048 -s 1 -d 3 -p tcp -e 1040 -c 0 -i 7 -a 0 -x {0.0 2.0 4 ------- null}
r -t 0.229339047619048 -s 3 -d 1 -p ack -e 40 -c 0 -i 5 -a 0 -x {2.0 0.0 2 ------- null}
+ -t 0.229339047619048 -s 1 -d 0 -p ack -e 40 -c 0 -i 5 -a 0 -x {2.0 0.0 2 ------- null}
- -t 0.229339047619048 -s 1 -d 0 -p ack -e 40 -c 0 -i 5 -a 0 -x {2.0 0.0 2 ------- null}
h -t 0.229339047619048 -s 1 -d 0 -p ack -e 40 -c 0 -i 5 -a 0 -x {2.0 0.0 -1 ------- null}
- -t 0.229447619047619 -s 1 -d 3 -p tcp -e 1040 -c 0 -i 7 -a 0 -x {0.0 2.0 4 ------- null}
h -t 0.229447619047619 -s 1 -d 3 -p tcp -e 1040 -c 0 -i 7 -a 0 -x {0.0 2.0 -1 ------- null}
r -t 0.230379047619048 -s 1 -d 0 -p ack -e 40 -c 0 -i 5 -a 0 -x {2.0 0.0 2 ------- null}
+ -t 0.230379047619048 -s 0 -d 1 -p tcp -e 1040 -c 0 -i 8 -a 0 -x {0.0 2.0 5 ------- null}
- -t 0.230379047619048 -s 0 -d 1 -p tcp -e 1040 -c 0 -i 8 -a 0 -x {0.0 2.0 5 ------- null}
h -t 0.230379047619048 -s 0 -d 1 -p tcp -e 1040 -c 0 -i 8 -a 0 -x {0.0 2.0 -1 ------- null}
+ -t 0.230379047619048 -s 0 -d 1 -p tcp -e 1040 -c 0 -i 9 -a 0 -x {0.0 2.0 6 ------- null}
r -t 0.230447619047619 -s 1 -d 3 -p tcp -e 1040 -c 0 -i 6 -a 0 -x {0.0 2.0 3 ------- null}
+ -t 0.230447619047619 -s 3 -d 4 -p tcp -e 1040 -c 0 -i 6 -a 0 -x {0.0 2.0 3 ------- null}
- -t 0.230447619047619 -s 3 -d 4 -p tcp -e 1040 -c 0 -i 6 -a 0 -x {0.0 2.0 3 ------- null}
h -t 0.230447619047619 -s 3 -d 4 -p tcp -e 1040 -c 0 -i 6 -a 0 -x {0.0 2.0 -1 ------- null}
- -t 0.231419047619048 -s 0 -d 1 -p tcp -e 1040 -c 0 -i 9 -a 0 -x {0.0 2.0 6 ------- null}
h -t 0.231419047619048 -s 0 -d 1 -p tcp -e 1040 -c 0 -i 9 -a 0 -x {0.0 2.0 -1 ------- null}
r -t 0.23163619047619 -s 1 -d 3 -p tcp -e 1040 -c 0 -i 7 -a 0 -x {0.0 2.0 4 ------- null}
+ -t 0.23163619047619 -s 3 -d 4 -p tcp -e 1040 -c 0 -i 7 -a 0 -x {0.0 2.0 4 ------- null}
r -t 0.232419047619048 -s 0 -d 1 -p tcp -e 1040 -c 0 -i 8 -a 0 -x {0.0 2.0 5 ------- null}
+ -t 0.232419047619048 -s 1 -d 3 -p tcp -e 1040 -c 0 -i 8 -a 0 -x {0.0 2.0 5 ------- null}
- -t 0.232419047619048 -s 1 -d 3 -p tcp -e 1040 -c 0 -i 8 -a 0 -x {0.0 2.0 5 ------- null}
h -t 0.232419047619048 -s 1 -d 3 -p tcp -e 1040 -c 0 -i 8 -a 0 -x {0.0 2.0 -1 ------- null}
r -t 0.233459047619048 -s 0 -d 1 -p tcp -e 1040 -c 0 -i 9 -a 0 -x {0.0 2.0 6 ------- null}
+ -t 0.233459047619048 -s 1 -d 3 -p tcp -e 1040 -c 0 -i 9 -a 0 -x {0.0 2.0 6 ------- null}
- -t 0.233607619047619 -s 1 -d 3 -p tcp -e 1040 -c 0 -i 9 -a 0 -x {0.0 2.0 6 ------- null}
h -t 0.233607619047619 -s 1 -d 3 -p tcp -e 1040 -c 0 -i 9 -a 0 -x {0.0 2.0 -1 ------- null}
- -t 0.234607619047619 -s 3 -d 4 -p tcp -e 1040 -c 0 -i 7 -a 0 -x {0.0 2.0 4 ------- null}
h -t 0.234607619047619 -s 3 -d 4 -p tcp -e 1040 -c 0 -i 7 -a 0 -x {0.0 2.0 -1 ------- null}
r -t 0.234607619047619 -s 1 -d 3 -p tcp -e 1040 -c 0 -i 8 -a 0 -x {0.0 2.0 5 ------- null}
+ -t 0.234607619047619 -s 3 -d 4 -p tcp -e 1040 -c 0 -i 8 -a 0 -x {0.0 2.0 5 ------- null}
r -t 0.235607619047619 -s 3 -d 4 -p tcp -e 1040 -c 0 -i 6 -a 0 -x {0.0 2.0 3 ------- null}
+ -t 0.235607619047619 -s 4 -d 2 -p tcp -e 1040 -c 0 -i 6 -a 0 -x {0.0 2.0 3 ------- null}
- -t 0.235607619047619 -s 4 -d 2 -p tcp -e 1040 -c 0 -i 6 -a 0 -x {0.0 2.0 3 ------- null}
h -t 0.235607619047619 -s 4 -d 2 -p tcp -e 1040 -c 0 -i 6 -a 0 -x {0.0 2.0 -1 ------- null}
r -t 0.23579619047619 -s 1 -d 3 -p tcp -e 1040 -c 0 -i 9 -a 0 -x {0.0 2.0 6 ------- null}
+ -t 0.23579619047619 -s 3 -d 4 -p tcp -e 1040 -c 0 -i 9 -a 0 -x {0.0 2.0 6 ------- null}
- -t 0.238767619047619 -s 3 -d 4 -p tcp -e 1040 -c 0 -i 8 -a 0 -x {0.0 2.0 5 ------- null}
h -t 0.238767619047619 -s 3 -d 4 -p tcp -e 1040 -c 0 -i 8 -a 0 -x {0.0 2.0 -1 ------- null}
r -t 0.239380952380952 -s 4 -d 2 -p tcp -e 1040 -c 0 -i 6 -a 0 -x {0.0 2.0 3 ------- null}
+ -t 0.239380952380952 -s 2 -d 4 -p ack -e 40 -c 0 -i 10 -a 0 -x {2.0 0.0 3 ------- null}
- -t 0.239380952380952 -s 2 -d 4 -p ack -e 40 -c 0 -i 10 -a 0 -x {2.0 0.0 3 ------- null}
h -t 0.239380952380952 -s 2 -d 4 -p ack -e 40 -c 0 -i 10 -a 0 -x {2.0 0.0 -1 ------- null}
r -t 0.239767619047619 -s 3 -d 4 -p tcp -e 1040 -c 0 -i 7 -a 0 -x {0.0 2.0 4 ------- null}
+ -t 0.239767619047619 -s 4 -d 2 -p tcp -e 1040 -c 0 -i 7 -a 0 -x {0.0 2.0 4 ------- null}
- -t 0.239767619047619 -s 4 -d 2 -p tcp -e 1040 -c 0 -i 7 -a 0 -x {0.0 2.0 4 ------- null}
h -t 0.239767619047619 -s 4 -d 2 -p tcp -e 1040 -c 0 -i 7 -a 0 -x {0.0 2.0 -1 ------- null}
r -t 0.240487619047619 -s 2 -d 4 -p ack -e 40 -c 0 -i 10 -a 0 -x {2.0 0.0 3 ------- null}
+ -t 0.240487619047619 -s 4 -d 3 -p ack -e 40 -c 0 -i 10 -a 0 -x {2.0 0.0 3 ------- null}
- -t 0.240487619047619 -s 4 -d 3 -p ack -e 40 -c 0 -i 10 -a 0 -x {2.0 0.0 3 ------- null}
h -t 0.240487619047619 -s 4 -d 3 -p ack -e 40 -c 0 -i 10 -a 0 -x {2.0 0.0 -1 ------- null}
r -t 0.241647619047619 -s 4 -d 3 -p ack -e 40 -c 0 -i 10 -a 0 -x {2.0 0.0 3 ------- null}
+ -t 0.241647619047619 -s 3 -d 1 -p ack -e 40 -c 0 -i 10 -a 0 -x {2.0 0.0 3 ------- null}
- -t 0.241647619047619 -s 3 -d 1 -p ack -e 40 -c 0 -i 10 -a 0 -x {2.0 0.0 3 ------- null}
h -t 0.241647619047619 -s 3 -d 1 -p ack -e 40 -c 0 -i 10 -a 0 -x {2.0 0.0 -1 ------- null}
r -t 0.242693333333333 -s 3 -d 1 -p ack -e 40 -c 0 -i 10 -a 0 -x {2.0 0.0 3 ------- null}
+ -t 0.242693333333333 -s 1 -d 0 -p ack -e 40 -c 0 -i 10 -a 0 -x {2.0 0.0 3 ------- null}
- -t 0.242693333333333 -s 1 -d 0 -p ack -e 40 -c 0 -i 10 -a 0 -x {2.0 0.0 3 ------- null}
h -t 0.242693333333333 -s 1 -d 0 -p ack -e 40 -c 0 -i 10 -a 0 -x {2.0 0.0 -1 ------- null}
- -t 0.242927619047619 -s 3 -d 4 -p tcp -e 1040 -c 0 -i 9 -a 0 -x {0.0 2.0 6 ------- null}
h -t 0.242927619047619 -s 3 -d 4 -p tcp -e 1040 -c 0 -i 9 -a 0 -x {0.0 2.0 -1 ------- null}
r -t 0.243540952380952 -s 4 -d 2 -p tcp -e 1040 -c 0 -i 7 -a 0 -x {0.0 2.0 4 ------- null}
+ -t 0.243540952380952 -s 2 -d 4 -p ack -e 40 -c 0 -i 11 -a 0 -x {2.0 0.0 4 ------- null}
- -t 0.243540952380952 -s 2 -d 4 -p ack -e 40 -c 0 -i 11 -a 0 -x {2.0 0.0 4 ------- null}
h -t 0.243540952380952 -s 2 -d 4 -p ack -e 40 -c 0 -i 11 -a 0 -x {2.0 0.0 -1 ------- null}
r -t 0.243733333333333 -s 1 -d 0 -p ack -e 40 -c 0 -i 10 -a 0 -x {2.0 0.0 3 ------- null}
+ -t 0.243733333333333 -s 0 -d 1 -p tcp -e 1040 -c 0 -i 12 -a 0 -x {0.0 2.0 7 ------- null}
- -t 0.243733333333333 -s 0 -d 1 -p tcp -e 1040 -c 0 -i 12 -a 0 -x {0.0 2.0 7 ------- null}
h -t 0.243733333333333 -s 0 -d 1 -p tcp -e 1040 -c 0 -i 12 -a 0 -x {0.0 2.0 -1 ------- null}
+ -t 0.243733333333333 -s 0 -d 1 -p tcp -e 1040 -c 0 -i 13 -a 0 -x {0.0 2.0 8 ------- null}
r -t 0.243927619047619 -s 3 -d 4 -p tcp -e 1040 -c 0 -i 8 -a 0 -x {0.0 2.0 5 ------- null}
+ -t 0.243927619047619 -s 4 -d 2 -p tcp -e 1040 -c 0 -i 8 -a 0 -x {0.0 2.0 5 ------- null}
- -t 0.243927619047619 -s 4 -d 2 -p tcp -e 1040 -c 0 -i 8 -a 0 -x {0.0 2.0 5 ------- null}
h -t 0.243927619047619 -s 4 -d 2 -p tcp -e 1040 -c 0 -i 8 -a 0 -x {0.0 2.0 -1 ------- null}
r -t 0.244647619047619 -s 2 -d 4 -p ack -e 40 -c 0 -i 11 -a 0 -x {2.0 0.0 4 ------- null}
+ -t 0.244647619047619 -s 4 -d 3 -p ack -e 40 -c 0 -i 11 -a 0 -x {2.0 0.0 4 ------- null}
- -t 0.244647619047619 -s 4 -d 3 -p ack -e 40 -c 0 -i 11 -a 0 -x {2.0 0.0 4 ------- null}
h -t 0.244647619047619 -s 4 -d 3 -p ack -e 40 -c 0 -i 11 -a 0 -x {2.0 0.0 -1 ------- null}
- -t 0.244773333333333 -s 0 -d 1 -p tcp -e 1040 -c 0 -i 13 -a 0 -x {0.0 2.0 8 ------- null}
h -t 0.244773333333333 -s 0 -d 1 -p tcp -e 1040 -c 0 -i 13 -a 0 -x {0.0 2.0 -1 ------- null}
r -t 0.245773333333333 -s 0 -d 1 -p tcp -e 1040 -c 0 -i 12 -a 0 -x {0.0 2.0 7 ------- null}
+ -t 0.245773333333333 -s 1 -d 3 -p tcp -e 1040 -c 0 -i 12 -a 0 -x {0.0 2.0 7 ------- null}
- -t 0.245773333333333 -s 1 -d 3 -p tcp -e 1040 -c 0 -i 12 -a 0 -x {0.0 2.0 7 ------- null}
h -t 0.245773333333333 -s 1 -d 3 -p tcp -e 1040 -c 0 -i 12 -a 0 -x {0.0 2.0 -1 ------- null}
r -t 0.245807619047619 -s 4 -d 3 -p ack -e 40 -c 0 -i 11 -a 0 -x {2.0 0.0 4 ------- null}
+ -t 0.245807619047619 -s 3 -d 1 -p ack -e 40 -c 0 -i 11 -a 0 -x {2.0 0.0 4 ------- null}
- -t 0.245807619047619 -s 3 -d 1 -p ack -e 40 -c 0 -i 11 -a 0 -x {2.0 0.0 4 ------- null}
h -t 0.245807619047619 -s 3 -d 1 -p ack -e 40 -c 0 -i 11 -a 0 -x {2.0 0.0 -1 ------- null}
r -t 0.246813333333333 -s 0 -d 1 -p tcp -e 1040 -c 0 -i 13 -a 0 -x {0.0 2.0 8 ------- null}
+ -t 0.246813333333333 -s 1 -d 3 -p tcp -e 1040 -c 0 -i 13 -a 0 -x {0.0 2.0 8 ------- null}
r -t 0.246853333333333 -s 3 -d 1 -p ack -e 40 -c 0 -i 11 -a 0 -x {2.0 0.0 4 ------- null}
+ -t 0.246853333333333 -s 1 -d 0 -p ack -e 40 -c 0 -i 11 -a 0 -x {2.0 0.0 4 ------- null}
- -t 0.246853333333333 -s 1 -d 0 -p ack -e 40 -c 0 -i 11 -a 0 -x {2.0 0.0 4 ------- null}
h -t 0.246853333333333 -s 1 -d 0 -p ack -e 40 -c 0 -i 11 -a 0 -x {2.0 0.0 -1 ------- null}
- -t 0.246961904761905 -s 1 -d 3 -p tcp -e 1040 -c 0 -i 13 -a 0 -x {0.0 2.0 8 ------- null}
h -t 0.246961904761905 -s 1 -d 3 -p tcp -e 1040 -c 0 -i 13 -a 0 -x {0.0 2.0 -1 ------- null}
r -t 0.247700952380952 -s 4 -d 2 -p tcp -e 1040 -c 0 -i 8 -a 0 -x {0.0 2.0 5 ------- null}
+ -t 0.247700952380952 -s 2 -d 4 -p ack -e 40 -c 0 -i 14 -a 0 -x {2.0 0.0 5 ------- null}
- -t 0.247700952380952 -s 2 -d 4 -p ack -e 40 -c 0 -i 14 -a 0 -x {2.0 0.0 5 ------- null}
h -t 0.247700952380952 -s 2 -d 4 -p ack -e 40 -c 0 -i 14 -a 0 -x {2.0 0.0 -1 ------- null}
r -t 0.247893333333333 -s 1 -d 0 -p ack -e 40 -c 0 -i 11 -a 0 -x {2.0 0.0 4 ------- null}
+ -t 0.247893333333333 -s 0 -d 1 -p tcp -e 1040 -c 0 -i 15 -a 0 -x {0.0 2.0 9 ------- null}
- -t 0.247893333333333 -s 0 -d 1 -p tcp -e 1040 -c 0 -i 15 -a 0 -x {0.0 2.0 9 ------- null}
h -t 0.247893333333333 -s 0 -d 1 -p tcp -e 1040 -c 0 -i 15 -a 0 -x {0.0 2.0 -1 ------- null}
+ -t 0.247893333333333 -s 0 -d 1 -p tcp -e 1040 -c 0 -i 16 -a 0 -x {0.0 2.0 10 ------- null}
r -t 0.247961904761905 -s 1 -d 3 -p tcp -e 1040 -c 0 -i 12 -a 0 -x {0.0 2.0 7 ------- null}
+ -t 0.247961904761905 -s 3 -d 4 -p tcp -e 1040 -c 0 -i 12 -a 0 -x {0.0 2.0 7 ------- null}
- -t 0.247961904761905 -s 3 -d 4 -p tcp -e 1040 -c 0 -i 12 -a 0 -x {0.0 2.0 7 ------- null}
h -t 0.247961904761905 -s 3 -d 4 -p tcp -e 1040 -c 0 -i 12 -a 0 -x {0.0 2.0 -1 ------- null}
r -t 0.248087619047619 -s 3 -d 4 -p tcp -e 1040 -c 0 -i 9 -a 0 -x {0.0 2.0 6 ------- null}
+ -t 0.248087619047619 -s 4 -d 2 -p tcp -e 1040 -c 0 -i 9 -a 0 -x {0.0 2.0 6 ------- null}
- -t 0.248087619047619 -s 4 -d 2 -p tcp -e 1040 -c 0 -i 9 -a 0 -x {0.0 2.0 6 ------- null}
h -t 0.248087619047619 -s 4 -d 2 -p tcp -e 1040 -c 0 -i 9 -a 0 -x {0.0 2.0 -1 ------- null}
r -t 0.248807619047619 -s 2 -d 4 -p ack -e 40 -c 0 -i 14 -a 0 -x {2.0 0.0 5 ------- null}
+ -t 0.248807619047619 -s 4 -d 3 -p ack -e 40 -c 0 -i 14 -a 0 -x {2.0 0.0 5 ------- null}
- -t 0.248807619047619 -s 4 -d 3 -p ack -e 40 -c 0 -i 14 -a 0 -x {2.0 0.0 5 ------- null}
h -t 0.248807619047619 -s 4 -d 3 -p ack -e 40 -c 0 -i 14 -a 0 -x {2.0 0.0 -1 ------- null}
- -t 0.248933333333333 -s 0 -d 1 -p tcp -e 1040 -c 0 -i 16 -a 0 -x {0.0 2.0 10 ------- null}
h -t 0.248933333333333 -s 0 -d 1 -p tcp -e 1040 -c 0 -i 16 -a 0 -x {0.0 2.0 -1 ------- null}
r -t 0.249150476190476 -s 1 -d 3 -p tcp -e 1040 -c 0 -i 13 -a 0 -x {0.0 2.0 8 ------- null}
+ -t 0.249150476190476 -s 3 -d 4 -p tcp -e 1040 -c 0 -i 13 -a 0 -x {0.0 2.0 8 ------- null}
r -t 0.249933333333333 -s 0 -d 1 -p tcp -e 1040 -c 0 -i 15 -a 0 -x {0.0 2.0 9 ------- null}
+ -t 0.249933333333333 -s 1 -d 3 -p tcp -e 1040 -c 0 -i 15 -a 0 -x {0.0 2.0 9 ------- null}
- -t 0.249933333333333 -s 1 -d 3 -p tcp -e 1040 -c 0 -i 15 -a 0 -x {0.0 2.0 9 ------- null}
h -t 0.249933333333333 -s 1 -d 3 -p tcp -e 1040 -c 0 -i 15 -a 0 -x {0.0 2.0 -1 ------- null}
r -t 0.249967619047619 -s 4 -d 3 -p ack -e 40 -c 0 -i 14 -a 0 -x {2.0 0.0 5 ------- null}
+ -t 0.249967619047619 -s 3 -d 1 -p ack -e 40 -c 0 -i 14 -a 0 -x {2.0 0.0 5 ------- null}
- -t 0.249967619047619 -s 3 -d 1 -p ack -e 40 -c 0 -i 14 -a 0 -x {2.0 0.0 5 ------- null}
h -t 0.249967619047619 -s 3 -d 1 -p ack -e 40 -c 0 -i 14 -a 0 -x {2.0 0.0 -1 ------- null}
r -t 0.250973333333333 -s 0 -d 1 -p tcp -e 1040 -c 0 -i 16 -a 0 -x {0.0 2.0 10 ------- null}
+ -t 0.250973333333333 -s 1 -d 3 -p tcp -e 1040 -c 0 -i 16 -a 0 -x {0.0 2.0 10 ------- null}
r -t 0.251013333333333 -s 3 -d 1 -p ack -e 40 -c 0 -i 14 -a 0 -x {2.0 0.0 5 ------- null}
+ -t 0.251013333333333 -s 1 -d 0 -p ack -e 40 -c 0 -i 14 -a 0 -x {2.0 0.0 5 ------- null}
- -t 0.251013333333333 -s 1 -d 0 -p ack -e 40 -c 0 -i 14 -a 0 -x {2.0 0.0 5 ------- null}
h -t 0.251013333333333 -s 1 -d 0 -p ack -e 40 -c 0 -i 14 -a 0 -x {2.0 0.0 -1 ------- null}
- -t 0.251121904761905 -s 1 -d 3 -p tcp -e 1040 -c 0 -i 16 -a 0 -x {0.0 2.0 10 ------- null}
h -t 0.251121904761905 -s 1 -d 3 -p tcp -e 1040 -c 0 -i 16 -a 0 -x {0.0 2.0 -1 ------- null}
r -t 0.251860952380952 -s 4 -d 2 -p tcp -e 1040 -c 0 -i 9 -a 0 -x {0.0 2.0 6 ------- null}
+ -t 0.251860952380952 -s 2 -d 4 -p ack -e 40 -c 0 -i 17 -a 0 -x {2.0 0.0 6 ------- null}
- -t 0.251860952380952 -s 2 -d 4 -p ack -e 40 -c 0 -i 17 -a 0 -x {2.0 0.0 6 ------- null}
h -t 0.251860952380952 -s 2 -d 4 -p ack -e 40 -c 0 -i 17 -a 0 -x {2.0 0.0 -1 ------- null}
r -t 0.252053333333333 -s 1 -d 0 -p ack -e 40 -c 0 -i 14 -a 0 -x {2.0 0.0 5 ------- null}
+ -t 0.252053333333333 -s 0 -d 1 -p tcp -e 1040 -c 0 -i 18 -a 0 -x {0.0 2.0 11 ------- null}
- -t 0.252053333333333 -s 0 -d 1 -p tcp -e 1040 -c 0 -i 18 -a 0 -x {0.0 2.0 11 ------- null}
h -t 0.252053333333333 -s 0 -d 1 -p tcp -e 1040 -c 0 -i 18 -a 0 -x {0.0 2.0 -1 ------- null}
+ -t 0.252053333333333 -s 0 -d 1 -p tcp -e 1040 -c 0 -i 19 -a 0 -x {0.0 2.0 12 ------- null}
- -t 0.252121904761905 -s 3 -d 4 -p tcp -e 1040 -c 0 -i 13 -a 0 -x {0.0 2.0 8 ------- null}
h -t 0.252121904761905 -s 3 -d 4 -p tcp -e 1040 -c 0 -i 13 -a 0 -x {0.0 2.0 -1 ------- null}
r -t 0.252121904761905 -s 1 -d 3 -p tcp -e 1040 -c 0 -i 15 -a 0 -x {0.0 2.0 9 ------- null}
+ -t 0.252121904761905 -s 3 -d 4 -p tcp -e 1040 -c 0 -i 15 -a 0 -x {0.0 2.0 9 ------- null}
r -t 0.252967619047619 -s 2 -d 4 -p ack -e 40 -c 0 -i 17 -a 0 -x {2.0 0.0 6 ------- null}
+ -t 0.252967619047619 -s 4 -d 3 -p ack -e 40 -c 0 -i 17 -a 0 -x {2.0 0.0 6 ------- null}
- -t 0.252967619047619 -s 4 -d 3 -p ack -e 40 -c 0 -i 17 -a 0 -x {2.0 0.0 6 ------- null}
h -t 0.252967619047619 -s 4 -d 3 -p ack -e 40 -c 0 -i 17 -a 0 -x {2.0 0.0 -1 ------- null}
- -t 0.253093333333333 -s 0 -d 1 -p tcp -e 1040 -c 0 -i 19 -a 0 -x {0.0 2.0 12 ------- null}
h -t 0.253093333333333 -s 0 -d 1 -p tcp -e 1040 -c 0 -i 19 -a 0 -x {0.0 2.0 -1 ------- null}
r -t 0.253121904761905 -s 3 -d 4 -p tcp -e 1040 -c 0 -i 12 -a 0 -x {0.0 2.0 7 ------- null}
+ -t 0.253121904761905 -s 4 -d 2 -p tcp -e 1040 -c 0 -i 12 -a 0 -x {0.0 2.0 7 ------- null}
- -t 0.253121904761905 -s 4 -d 2 -p tcp -e 1040 -c 0 -i 12 -a 0 -x {0.0 2.0 7 ------- null}
h -t 0.253121904761905 -s 4 -d 2 -p tcp -e 1040 -c 0 -i 12 -a 0 -x {0.0 2.0 -1 ------- null}
r -t 0.253310476190476 -s 1 -d 3 -p tcp -e 1040 -c 0 -i 16 -a 0 -x {0.0 2.0 10 ------- null}
+ -t 0.253310476190476 -s 3 -d 4 -p tcp -e 1040 -c 0 -i 16 -a 0 -x {0.0 2.0 10 ------- null}
r -t 0.254093333333333 -s 0 -d 1 -p tcp -e 1040 -c 0 -i 18 -a 0 -x {0.0 2.0 11 ------- null}
+ -t 0.254093333333333 -s 1 -d 3 -p tcp -e 1040 -c 0 -i 18 -a 0 -x {0.0 2.0 11 ------- null}
- -t 0.254093333333333 -s 1 -d 3 -p tcp -e 1040 -c 0 -i 18 -a 0 -x {0.0 2.0 11 ------- null}
h -t 0.254093333333333 -s 1 -d 3 -p tcp -e 1040 -c 0 -i 18 -a 0 -x {0.0 2.0 -1 ------- null}
r -t 0.254127619047619 -s 4 -d 3 -p ack -e 40 -c 0 -i 17 -a 0 -x {2.0 0.0 6 ------- null}
+ -t 0.254127619047619 -s 3 -d 1 -p ack -e 40 -c 0 -i 17 -a 0 -x {2.0 0.0 6 ------- null}
- -t 0.254127619047619 -s 3 -d 1 -p ack -e 40 -c 0 -i 17 -a 0 -x {2.0 0.0 6 ------- null}
h -t 0.254127619047619 -s 3 -d 1 -p ack -e 40 -c 0 -i 17 -a 0 -x {2.0 0.0 -1 ------- null}
r -t 0.255133333333333 -s 0 -d 1 -p tcp -e 1040 -c 0 -i 19 -a 0 -x {0.0 2.0 12 ------- null}
+ -t 0.255133333333333 -s 1 -d 3 -p tcp -e 1040 -c 0 -i 19 -a 0 -x {0.0 2.0 12 ------- null}
r -t 0.255173333333333 -s 3 -d 1 -p ack -e 40 -c 0 -i 17 -a 0 -x {2.0 0.0 6 ------- null}
+ -t 0.255173333333333 -s 1 -d 0 -p ack -e 40 -c 0 -i 17 -a 0 -x {2.0 0.0 6 ------- null}
- -t 0.255173333333333 -s 1 -d 0 -p ack -e 40 -c 0 -i 17 -a 0 -x {2.0 0.0 6 ------- null}
h -t 0.255173333333333 -s 1 -d 0 -p ack -e 40 -c 0 -i 17 -a 0 -x {2.0 0.0 -1 ------- null}
- -t 0.255281904761905 -s 1 -d 3 -p tcp -e 1040 -c 0 -i 19 -a 0 -x {0.0 2.0 12 ------- null}
h -t 0.255281904761905 -s 1 -d 3 -p tcp -e 1040 -c 0 -i 19 -a 0 -x {0.0 2.0 -1 ------- null}
r -t 0.256213333333333 -s 1 -d 0 -p ack -e 40 -c 0 -i 17 -a 0 -x {2.0 0.0 6 ------- null}
+ -t 0.256213333333333 -s 0 -d 1 -p tcp -e 1040 -c 0 -i 20 -a 0 -x {0.0 2.0 13 ------- null}
- -t 0.256213333333333 -s 0 -d 1 -p tcp -e 1040 -c 0 -i 20 -a 0 -x {0.0 2.0 13 ------- null}
h -t 0.256213333333333 -s 0 -d 1 -p tcp -e 1040 -c 0 -i 20 -a 0 -x {0.0 2.0 -1 ------- null}
+ -t 0.256213333333333 -s 0 -d 1 -p tcp -e 1040 -c 0 -i 21 -a 0 -x {0.0 2.0 14 ------- null}
r -t 0.256281904761905 -s 1 -d 3 -p tcp -e 1040 -c 0 -i 18 -a 0 -x {0.0 2.0 11 ------- null}
+ -t 0.256281904761905 -s 3 -d 4 -p tcp -e 1040 -c 0 -i 18 -a 0 -x {0.0 2.0 11 ------- null}
- -t 0.256281904761905 -s 3 -d 4 -p tcp -e 1040 -c 0 -i 15 -a 0 -x {0.0 2.0 9 ------- null}
h -t 0.256281904761905 -s 3 -d 4 -p tcp -e 1040 -c 0 -i 15 -a 0 -x {0.0 2.0 -1 ------- null}
r -t 0.256895238095238 -s 4 -d 2 -p tcp -e 1040 -c 0 -i 12 -a 0 -x {0.0 2.0 7 ------- null}
+ -t 0.256895238095238 -s 2 -d 4 -p ack -e 40 -c 0 -i 22 -a 0 -x {2.0 0.0 7 ------- null}
- -t 0.256895238095238 -s 2 -d 4 -p ack -e 40 -c 0 -i 22 -a 0 -x {2.0 0.0 7 ------- null}
h -t 0.256895238095238 -s 2 -d 4 -p ack -e 40 -c 0 -i 22 -a 0 -x {2.0 0.0 -1 ------- null}
- -t 0.257253333333333 -s 0 -d 1 -p tcp -e 1040 -c 0 -i 21 -a 0 -x {0.0 2.0 14 ------- null}
h -t 0.257253333333333 -s 0 -d 1 -p tcp -e 1040 -c 0 -i 21 -a 0 -x {0.0 2.0 -1 ------- null}
r -t 0.257281904761905 -s 3 -d 4 -p tcp -e 1040 -c 0 -i 13 -a 0 -x {0.0 2.0 8 ------- null}
+ -t 0.257281904761905 -s 4 -d 2 -p tcp -e 1040 -c 0 -i 13 -a 0 -x {0.0 2.0 8 ------- null}
- -t 0.257281904761905 -s 4 -d 2 -p tcp -e 1040 -c 0 -i 13 -a 0 -x {0.0 2.0 8 ------- null}
h -t 0.257281904761905 -s 4 -d 2 -p tcp -e 1040 -c 0 -i 13 -a 0 -x {0.0 2.0 -1 ------- null}
r -t 0.257470476190476 -s 1 -d 3 -p tcp -e 1040 -c 0 -i 19 -a 0 -x {0.0 2.0 12 ------- null}
+ -t 0.257470476190476 -s 3 -d 4 -p tcp -e 1040 -c 0 -i 19 -a 0 -x {0.0 2.0 12 ------- null}
r -t 0.258001904761905 -s 2 -d 4 -p ack -e 40 -c 0 -i 22 -a 0 -x {2.0 0.0 7 ------- null}
+ -t 0.258001904761905 -s 4 -d 3 -p ack -e 40 -c 0 -i 22 -a 0 -x {2.0 0.0 7 ------- null}
- -t 0.258001904761905 -s 4 -d 3 -p ack -e 40 -c 0 -i 22 -a 0 -x {2.0 0.0 7 ------- null}
h -t 0.258001904761905 -s 4 -d 3 -p ack -e 40 -c 0 -i 22 -a 0 -x {2.0 0.0 -1 ------- null}
r -t 0.258253333333333 -s 0 -d 1 -p tcp -e 1040 -c 0 -i 20 -a 0 -x {0.0 2.0 13 ------- null}
+ -t 0.258253333333333 -s 1 -d 3 -p tcp -e 1040 -c 0 -i 20 -a 0 -x {0.0 2.0 13 ------- null}
- -t 0.258253333333333 -s 1 -d 3 -p tcp -e 1040 -c 0 -i 20 -a 0 -x {0.0 2.0 13 ------- null}
h -t 0.258253333333333 -s 1 -d 3 -p tcp -e 1040 -c 0 -i 20 -a 0 -x {0.0 2.0 -1 ------- null}
r -t 0.259161904761905 -s 4 -d 3 -p ack -e 40 -c 0 -i 22 -a 0 -x {2.0 0.0 7 ------- null}
+ -t 0.259161904761905 -s 3 -d 1 -p ack -e 40 -c 0 -i 22 -a 0 -x {2.0 0.0 7 ------- null}
- -t 0.259161904761905 -s 3 -d 1 -p ack -e 40 -c 0 -i 22 -a 0 -x {2.0 0.0 7 ------- null}
h -t 0.259161904761905 -s 3 -d 1 -p ack -e 40 -c 0 -i 22 -a 0 -x {2.0 0.0 -1 ------- null}
r -t 0.259293333333333 -s 0 -d 1 -p tcp -e 1040 -c 0 -i 21 -a 0 -x {0.0 2.0 14 ------- null}
+ -t 0.259293333333333 -s 1 -d 3 -p tcp -e 1040 -c 0 -i 21 -a 0 -x {0.0 2.0 14 ------- null}
- -t 0.259441904761905 -s 1 -d 3 -p tcp -e 1040 -c 0 -i 21 -a 0 -x {0.0 2.0 14 ------- null}
h -t 0.259441904761905 -s 1 -d 3 -p tcp -e 1040 -c 0 -i 21 -a 0 -x {0.0 2.0 -1 ------- null}
r -t 0.260207619047619 -s 3 -d 1 -p ack -e 40 -c 0 -i 22 -a 0 -x {2.0 0.0 7 ------- null}
+ -t 0.260207619047619 -s 1 -d 0 -p ack -e 40 -c 0 -i 22 -a 0 -x {2.0 0.0 7 ------- null}
- -t 0.260207619047619 -s 1 -d 0 -p ack -e 40 -c 0 -i 22 -a 0 -x {2.0 0.0 7 ------- null}
h -t 0.260207619047619 -s 1 -d 0 -p ack -e 40 -c 0 -i 22 -a 0 -x {2.0 0.0 -1 ------- null}
r -t 0.260441904761905 -s 1 -d 3 -p tcp -e 1040 -c 0 -i 20 -a 0 -x {0.0 2.0 13 ------- null}