+ 0.2 0 1 tcp 40 ------- 0 0.0 2.0 0 0
- 0.2 0 1 tcp 40 ------- 0 0.0 2.0 0 0
r 0.20104 0 1 tcp 40 ------- 0 0.0 2.0 0 0
+ 0.20104 1 3 tcp 40 ------- 0 0.0 2.0 0 0
- 0.20104 1 3 tcp 40 ------- 0 0.0 2.0 0 0
r 0.202086 1 3 tcp 40 ------- 0 0.0 2.0 0 0
+ 0.202086 3 4 tcp 40 ------- 0 0.0 2.0 0 0
- 0.202086 3 4 tcp 40 ------- 0 0.0 2.0 0 0
r 0.203246 3 4 tcp 40 ------- 0 0.0 2.0 0 0
+ 0.203246 4 2 tcp 40 ------- 0 0.0 2.0 0 0
- 0.203246 4 2 tcp 40 ------- 0 0.0 2.0 0 0
r 0.204352 4 2 tcp 40 ------- 0 0.0 2.0 0 0
+ 0.204352 2 4 ack 40 ------- 0 2.0 0.0 0 1
- 0.204352 2 4 ack 40 ------- 0 2.0 0.0 0 1
r 0.205459 2 4 ack 40 ------- 0 2.0 0.0 0 1
+ 0.205459 4 3 ack 40 ------- 0 2.0 0.0 0 1
- 0.205459 4 3 ack 40 ------- 0 2.0 0.0 0 1
r 0.206619 4 3 ack 40 ------- 0 2.0 0.0 0 1
+ 0.206619 3 1 ack 40 ------- 0 2.0 0.0 0 1
- 0.206619 3 1 ack 40 ------- 0 2.0 0.0 0 1
r 0.207665 3 1 ack 40 ------- 0 2.0 0.0 0 1
+ 0.207665 1 0 ack 40 ------- 0 2.0 0.0 0 1
- 0.207665 1 0 ack 40 ------- 0 2.0 0.0 0 1
r 0.208705 1 0 ack 40 ------- 0 2.0 0.0 0 1
+ 0.208705 0 1 tcp 1040 ------- 0 0.0 2.0 1 2
- 0.208705 0 1 tcp 1040 ------- 0 0.0 2.0 1 2
+ 0.208705 0 1 tcp 1040 ------- 0 0.0 2.0 2 3
- 0.209745 0 1 tcp 1040 ------- 0 0.0 2.0 2 3
r 0.210745 0 1 tcp 1040 ------- 0 0.0 2.0 1 2
+ 0.210745 1 3 tcp 1040 ------- 0 0.0 2.0 1 2
- 0.210745 1 3 tcp 1040 ------- 0 0.0 2.0 1 2
r 0.211785 0 1 tcp 1040 ------- 0 0.0 2.0 2 3
+ 0.211785 1 3 tcp 1040 ------- 0 0.0 2.0 2 3
- 0.211933 1 3 tcp 1040 ------- 0 0.0 2.0 2 3
r 0.212933 1 3 tcp 1040 ------- 0 0.0 2.0 1 2
+ 0.212933 3 4 tcp 1040 ------- 0 0.0 2.0 1 2
- 0.212933 3 4 tcp 1040 ------- 0 0.0 2.0 1 2
r 0.214122 1 3 tcp 1040 ------- 0 0.0 2.0 2 3
+ 0.214122 3 4 tcp 1040 ------- 0 0.0 2.0 2 3
- 0.217093 3 4 tcp 1040 ------- 0 0.0 2.0 2 3
r 0.218093 3 4 tcp 1040 ------- 0 0.0 2.0 1 2
+ 0.218093 4 2 tcp 1040 ------- 0 0.0 2.0 1 2
- 0.218093 4 2 tcp 1040 ------- 0 0.0 2.0 1 2
r 0.221867 4 2 tcp 1040 ------- 0 0.0 2.0 1 2
+ 0.221867 2 4 ack 40 ------- 0 2.0 0.0 1 4
- 0.221867 2 4 ack 40 ------- 0 2.0 0.0 1 4
r 0.222253 3 4 tcp 1040 ------- 0 0.0 2.0 2 3
+ 0.222253 4 2 tcp 1040 ------- 0 0.0 2.0 2 3
- 0.222253 4 2 tcp 1040 ------- 0 0.0 2.0 2 3
r 0.222973 2 4 ack 40 ------- 0 2.0 0.0 1 4
+ 0.222973 4 3 ack 40 ------- 0 2.0 0.0 1 4
- 0.222973 4 3 ack 40 ------- 0 2.0 0.0 1 4
r 0.224133 4 3 ack 40 ------- 0 2.0 0.0 1 4
+ 0.224133 3 1 ack 40 ------- 0 2.0 0.0 1 4
- 0.224133 3 1 ack 40 ------- 0 2.0 0.0 1 4
r 0.225179 3 1 ack 40 ------- 0 2.0 0.0 1 4
+ 0.225179 1 0 ack 40 ------- 0 2.0 0.0 1 4
- 0.225179 1 0 ack 40 ------- 0 2.0 0.0 1 4
r 0.226027 4 2 tcp 1040 ------- 0 0.0 2.0 2 3
+ 0.226027 2 4 ack 40 ------- 0 2.0 0.0 2 5
- 0.226027 2 4 ack 40 ------- 0 2.0 0.0 2 5
r 0.226219 1 0 ack 40 ------- 0 2.0 0.0 1 4
+ 0.226219 0 1 tcp 1040 ------- 0 0.0 2.0 3 6
- 0.226219 0 1 tcp 1040 ------- 0 0.0 2.0 3 6
+ 0.226219 0 1 tcp 1040 ------- 0 0.0 2.0 4 7
r 0.227133 2 4 ack 40 ------- 0 2.0 0.0 2 5
+ 0.227133 4 3 ack 40 ------- 0 2.0 0.0 2 5
- 0.227133 4 3 ack 40 ------- 0 2.0 0.0 2 5
- 0.227259 0 1 tcp 1040 ------- 0 0.0 2.0 4 7
r 0.228259 0 1 tcp 1040 ------- 0 0.0 2.0 3 6
+ 0.228259 1 3 tcp 1040 ------- 0 0.0 2.0 3 6
- 0.228259 1 3 tcp 1040 ------- 0 0.0 2.0 3 6
r 0.228293 4 3 ack 40 ------- 0 2.0 0.0 2 5
+ 0.228293 3 1 ack 40 ------- 0 2.0 0.0 2 5
- 0.228293 3 1 ack 40 ------- 0 2.0 0.0 2 5
r 0.229299 0 1 tcp 1040 ------- 0 0.0 2.0 4 7
+ 0.229299 1 3 tcp 1040 ------- 0 0.0 2.0 4 7
r 0.229339 3 1 ack 40 ------- 0 2.0 0.0 2 5
+ 0.229339 1 0 ack 40 ------- 0 2.0 0.0 2 5
- 0.229339 1 0 ack 40 ------- 0 2.0 0.0 2 5
- 0.229448 1 3 tcp 1040 ------- 0 0.0 2.0 4 7
r 0.230379 1 0 ack 40 ------- 0 2.0 0.0 2 5
+ 0.230379 0 1 tcp 1040 ------- 0 0.0 2.0 5 8
- 0.230379 0 1 tcp 1040 ------- 0 0.0 2.0 5 8
+ 0.230379 0 1 tcp 1040 ------- 0 0.0 2.0 6 9
r 0.230448 1 3 tcp 1040 ------- 0 0.0 2.0 3 6
+ 0.230448 3 4 tcp 1040 ------- 0 0.0 2.0 3 6
- 0.230448 3 4 tcp 1040 ------- 0 0.0 2.0 3 6
- 0.231419 0 1 tcp 1040 ------- 0 0.0 2.0 6 9
r 0.231636 1 3 tcp 1040 ------- 0 0.0 2.0 4 7
+ 0.231636 3 4 tcp 1040 ------- 0 0.0 2.0 4 7
r 0.232419 0 1 tcp 1040 ------- 0 0.0 2.0 5 8
+ 0.232419 1 3 tcp 1040 ------- 0 0.0 2.0 5 8
- 0.232419 1 3 tcp 1040 ------- 0 0.0 2.0 5 8
r 0.233459 0 1 tcp 1040 ------- 0 0.0 2.0 6 9
+ 0.233459 1 3 tcp 1040 ------- 0 0.0 2.0 6 9
- 0.233608 1 3 tcp 1040 ------- 0 0.0 2.0 6 9
- 0.234608 3 4 tcp 1040 ------- 0 0.0 2.0 4 7
r 0.234608 1 3 tcp 1040 ------- 0 0.0 2.0 5 8
+ 0.234608 3 4 tcp 1040 ------- 0 0.0 2.0 5 8
r 0.235608 3 4 tcp 1040 ------- 0 0.0 2.0 3 6
+ 0.235608 4 2 tcp 1040 ------- 0 0.0 2.0 3 6
- 0.235608 4 2 tcp 1040 ------- 0 0.0 2.0 3 6
r 0.235796 1 3 tcp 1040 ------- 0 0.0 2.0 6 9
+ 0.235796 3 4 tcp 1040 ------- 0 0.0 2.0 6 9
- 0.238768 3 4 tcp 1040 ------- 0 0.0 2.0 5 8
r 0.239381 4 2 tcp 1040 ------- 0 0.0 2.0 3 6
+ 0.239381 2 4 ack 40 ------- 0 2.0 0.0 3 10
- 0.239381 2 4 ack 40 ------- 0 2.0 0.0 3 10
r 0.239768 3 4 tcp 1040 ------- 0 0.0 2.0 4 7
+ 0.239768 4 2 tcp 1040 ------- 0 0.0 2.0 4 7
- 0.239768 4 2 tcp 1040 ------- 0 0.0 2.0 4 7
r 0.240488 2 4 ack 40 ------- 0 2.0 0.0 3 10
+ 0.240488 4 3 ack 40 ------- 0 2.0 0.0 3 10
- 0.240488 4 3 ack 40 ------- 0 2.0 0.0 3 10
r 0.241648 4 3 ack 40 ------- 0 2.0 0.0 3 10
+ 0.241648 3 1 ack 40 ------- 0 2.0 0.0 3 10
- 0.241648 3 1 ack 40 ------- 0 2.0 0.0 3 10
r 0.242693 3 1 ack 40 ------- 0 2.0 0.0 3 10
+ 0.242693 1 0 ack 40 ------- 0 2.0 0.0 3 10
- 0.242693 1 0 ack 40 ------- 0 2.0 0.0 3 10
- 0.242928 3 4 tcp 1040 ------- 0 0.0 2.0 6 9
r 0.243541 4 2 tcp 1040 ------- 0 0.0 2.0 4 7
+ 0.243541 2 4 ack 40 ------- 0 2.0 0.0 4 11
- 0.243541 2 4 ack 40 ------- 0 2.0 0.0 4 11
r 0.243733 1 0 ack 40 ------- 0 2.0 0.0 3 10
+ 0.243733 0 1 tcp 1040 ------- 0 0.0 2.0 7 12
- 0.243733 0 1 tcp 1040 ------- 0 0.0 2.0 7 12
+ 0.243733 0 1 tcp 1040 ------- 0 0.0 2.0 8 13
r 0.243928 3 4 tcp 1040 ------- 0 0.0 2.0 5 8
+ 0.243928 4 2 tcp 1040 ------- 0 0.0 2.0 5 8
- 0.243928 4 2 tcp 1040 ------- 0 0.0 2.0 5 8
r 0.244648 2 4 ack 40 ------- 0 2.0 0.0 4 11
+ 0.244648 4 3 ack 40 ------- 0 2.0 0.0 4 11
- 0.244648 4 3 ack 40 ------- 0 2.0 0.0 4 11
- 0.244773 0 1 tcp 1040 ------- 0 0.0 2.0 8 13
r 0.245773 0 1 tcp 1040 ------- 0 0.0 2.0 7 12
+ 0.245773 1 3 tcp 1040 ------- 0 0.0 2.0 7 12
- 0.245773 1 3 tcp 1040 ------- 0 0.0 2.0 7 12
r 0.245808 4 3 ack 40 ------- 0 2.0 0.0 4 11
+ 0.245808 3 1 ack 40 ------- 0 2.0 0.0 4 11
- 0.245808 3 1 ack 40 ------- 0 2.0 0.0 4 11
r 0.246813 0 1 tcp 1040 ------- 0 0.0 2.0 8 13
+ 0.246813 1 3 tcp 1040 ------- 0 0.0 2.0 8 13
r 0.246853 3 1 ack 40 ------- 0 2.0 0.0 4 11
+ 0.246853 1 0 ack 40 ------- 0 2.0 0.0 4 11
- 0.246853 1 0 ack 40 ------- 0 2.0 0.0 4 11
- 0.246962 1 3 tcp 1040 ------- 0 0.0 2.0 8 13
r 0.247701 4 2 tcp 1040 ------- 0 0.0 2.0 5 8
+ 0.247701 2 4 ack 40 ------- 0 2.0 0.0 5 14
- 0.247701 2 4 ack 40 ------- 0 2.0 0.0 5 14
r 0.247893 1 0 ack 40 ------- 0 2.0 0.0 4 11
+ 0.247893 0 1 tcp 1040 ------- 0 0.0 2.0 9 15
- 0.247893 0 1 tcp 1040 ------- 0 0.0 2.0 9 15
+ 0.247893 0 1 tcp 1040 ------- 0 0.0 2.0 10 16
r 0.247962 1 3 tcp 1040 ------- 0 0.0 2.0 7 12
+ 0.247962 3 4 tcp 1040 ------- 0 0.0 2.0 7 12
- 0.247962 3 4 tcp 1040 ------- 0 0.0 2.0 7 12
r 0.248088 3 4 tcp 1040 ------- 0 0.0 2.0 6 9
+ 0.248088 4 2 tcp 1040 ------- 0 0.0 2.0 6 9
- 0.248088 4 2 tcp 1040 ------- 0 0.0 2.0 6 9
r 0.248808 2 4 ack 40 ------- 0 2.0 0.0 5 14
+ 0.248808 4 3 ack 40 ------- 0 2.0 0.0 5 14
- 0.248808 4 3 ack 40 ------- 0 2.0 0.0 5 14
- 0.248933 0 1 tcp 1040 ------- 0 0.0 2.0 10 16
r 0.24915 1 3 tcp 1040 ------- 0 0.0 2.0 8 13
+ 0.24915 3 4 tcp 1040 ------- 0 0.0 2.0 8 13
r 0.249933 0 1 tcp 1040 ------- 0 0.0 2.0 9 15
+ 0.249933 1 3 tcp 1040 ------- 0 0.0 2.0 9 15
- 0.249933 1 3 tcp 1040 ------- 0 0.0 2.0 9 15
r 0.249968 4 3 ack 40 ------- 0 2.0 0.0 5 14
+ 0.249968 3 1 ack 40 ------- 0 2.0 0.0 5 14
- 0.249968 3 1 ack 40 ------- 0 2.0 0.0 5 14
r 0.250973 0 1 tcp 1040 ------- 0 0.0 2.0 10 16
+ 0.250973 1 3 tcp 1040 ------- 0 0.0 2.0 10 16
r 0.251013 3 1 ack 40 ------- 0 2.0 0.0 5 14
+ 0.251013 1 0 ack 40 ------- 0 2.0 0.0 5 14
- 0.251013 1 0 ack 40 ------- 0 2.0 0.0 5 14
- 0.251122 1 3 tcp 1040 ------- 0 0.0 2.0 10 16
r 0.251861 4 2 tcp 1040 ------- 0 0.0 2.0 6 9
+ 0.251861 2 4 ack 40 ------- 0 2.0 0.0 6 17
- 0.251861 2 4 ack 40 ------- 0 2.0 0.0 6 17
r 0.252053 1 0 ack 40 ------- 0 2.0 0.0 5 14
+ 0.252053 0 1 tcp 1040 ------- 0 0.0 2.0 11 18
- 0.252053 0 1 tcp 1040 ------- 0 0.0 2.0 11 18
+ 0.252053 0 1 tcp 1040 ------- 0 0.0 2.0 12 19
- 0.252122 3 4 tcp 1040 ------- 0 0.0 2.0 8 13
r 0.252122 1 3 tcp 1040 ------- 0 0.0 2.0 9 15
+ 0.252122 3 4 tcp 1040 ------- 0 0.0 2.0 9 15
r 0.252968 2 4 ack 40 ------- 0 2.0 0.0 6 17
+ 0.252968 4 3 ack 40 ------- 0 2.0 0.0 6 17
- 0.252968 4 3 ack 40 ------- 0 2.0 0.0 6 17
- 0.253093 0 1 tcp 1040 ------- 0 0.0 2.0 12 19
r 0.253122 3 4 tcp 1040 ------- 0 0.0 2.0 7 12
+ 0.253122 4 2 tcp 1040 ------- 0 0.0 2.0 7 12
- 0.253122 4 2 tcp 1040 ------- 0 0.0 2.0 7 12
r 0.25331 1 3 tcp 1040 ------- 0 0.0 2.0 10 16
+ 0.25331 3 4 tcp 1040 ------- 0 0.0 2.0 10 16
r 0.254093 0 1 tcp 1040 ------- 0 0.0 2.0 11 18
+ 0.254093 1 3 tcp 1040 ------- 0 0.0 2.0 11 18
- 0.254093 1 3 tcp 1040 ------- 0 0.0 2.0 11 18
r 0.254128 4 3 ack 40 ------- 0 2.0 0.0 6 17
+ 0.254128 3 1 ack 40 ------- 0 2.0 0.0 6 17
- 0.254128 3 1 ack 40 ------- 0 2.0 0.0 6 17
r 0.255133 0 1 tcp 1040 ------- 0 0.0 2.0 12 19
+ 0.255133 1 3 tcp 1040 ------- 0 0.0 2.0 12 19
r 0.255173 3 1 ack 40 ------- 0 2.0 0.0 6 17
+ 0.255173 1 0 ack 40 ------- 0 2.0 0.0 6 17
- 0.255173 1 0 ack 40 ------- 0 2.0 0.0 6 17
- 0.255282 1 3 tcp 1040 ------- 0 0.0 2.0 12 19
r 0.256213 1 0 ack 40 ------- 0 2.0 0.0 6 17
+ 0.256213 0 1 tcp 1040 ------- 0 0.0 2.0 13 20
- 0.256213 0 1 tcp 1040 ------- 0 0.0 2.0 13 20
+ 0.256213 0 1 tcp 1040 ------- 0 0.0 2.0 14 21
r 0.256282 1 3 tcp 1040 ------- 0 0.0 2.0 11 18
+ 0.256282 3 4 tcp 1040 ------- 0 0.0 2.0 11 18
- 0.256282 3 4 tcp 1040 ------- 0 0.0 2.0 9 15
r 0.256895 4 2 tcp 1040 ------- 0 0.0 2.0 7 12
+ 0.256895 2 4 ack 40 ------- 0 2.0 0.0 7 22
- 0.256895 2 4 ack 40 ------- 0 2.0 0.0 7 22
- 0.257253 0 1 tcp 1040 ------- 0 0.0 2.0 14 21
r 0.257282 3 4 tcp 1040 ------- 0 0.0 2.0 8 13
+ 0.257282 4 2 tcp 1040 ------- 0 0.0 2.0 8 13
- 0.257282 4 2 tcp 1040 ------- 0 0.0 2.0 8 13
r 0.25747 1 3 tcp 1040 ------- 0 0.0 2.0 12 19
+ 0.25747 3 4 tcp 1040 ------- 0 0.0 2.0 12 19
r 0.258002 2 4 ack 40 ------- 0 2.0 0.0 7 22
+ 0.258002 4 3 ack 40 ------- 0 2.0 0.0 7 22
- 0.258002 4 3 ack 40 ------- 0 2.0 0.0 7 22
r 0.258253 0 1 tcp 1040 ------- 0 0.0 2.0 13 20
+ 0.258253 1 3 tcp 1040 ------- 0 0.0 2.0 13 20
- 0.258253 1 3 tcp 1040 ------- 0 0.0 2.0 13 20
r 0.259162 4 3 ack 40 ------- 0 2.0 0.0 7 22
+ 0.259162 3 1 ack 40 ------- 0 2.0 0.0 7 22
- 0.259162 3 1 ack 40 ------- 0 2.0 0.0 7 22
r 0.259293 0 1 tcp 1040 ------- 0 0.0 2.0 14 21
+ 0.259293 1 3 tcp 1040 ------- 0 0.0 2.0 14 21
- 0.259442 1 3 tcp 1040 ------- 0 0.0 2.0 14 21
r 0.260208 3 1 ack 40 ------- 0 2.0 0.0 7 22
+ 0.260208 1 0 ack 40 ------- 0 2.0 0.0 7 22
- 0.260208 1 0 ack 40 ------- 0 2.0 0.0 7 22
r 0.260442 1 3 tcp 1040 ------- 0 0.0 2.0 13 20
+ 0.260442 3 4 tcp 1040 ------- 0 0.0 2.0 13 20
- 0.260442 3 4 tcp 1040 ------- 0 0.0 2.0 10 16
r 0.261055 4 2 tcp 1040 ------- 0 0.0 2.0 8 13
+ 0.261055 2 4 ack 40 ------- 0 2.0 0.0 8 23
- 0.261055 2 4 ack 40 ------- 0 2.0 0.0 8 23
r 0.261248 1 0 ack 40 ------- 0 2.0 0.0 7 22
+ 0.261248 0 1 tcp 1040 ------- 0 0.0 2.0 15 24
- 0.261248 0 1 tcp 1040 ------- 0 0.0 2.0 15 24
+ 0.261248 0 1 tcp 1040 ------- 0 0.0 2.0 16 25
r 0.261442 3 4 tcp 1040 ------- 0 0.0 2.0 9 15
+ 0.261442 4 2 tcp 1040 ------- 0 0.0 2.0 9 15
- 0.261442 4 2 tcp 1040 ------- 0 0.0 2.0 9 15
r 0.26163 1 3 tcp 1040 ------- 0 0.0 2.0 14 21
+ 0.26163 3 4 tcp 1040 ------- 0 0.0 2.0 14 21
r 0.262162 2 4 ack 40 ------- 0 2.0 0.0 8 23
+ 0.262162 4 3 ack 40 ------- 0 2.0 0.0 8 23
- 0.262162 4 3 ack 40 ------- 0 2.0 0.0 8 23
- 0.262288 0 1 tcp 1040 ------- 0 0.0 2.0 16 25
r 0.263288 0 1 tcp 1040 ------- 0 0.0 2.0 15 24
+ 0.263288 1 3 tcp 1040 ------- 0 0.0 2.0 15 24
- 0.263288 1 3 tcp 1040 ------- 0 0.0 2.0 15 24
r 0.263322 4 3 ack 40 ------- 0 2.0 0.0 8 23
+ 0.263322 3 1 ack 40 ------- 0 2.0 0.0 8 23
- 0.263322 3 1 ack 40 ------- 0 2.0 0.0 8 23
r 0.264328 0 1 tcp 1040 ------- 0 0.0 2.0 16 25
+ 0.264328 1 3 tcp 1040 ------- 0 0.0 2.0 16 25
r 0.264368 3 1 ack 40 ------- 0 2.0 0.0 8 23
+ 0.264368 1 0 ack 40 ------- 0 2.0 0.0 8 23
- 0.264368 1 0 ack 40 ------- 0 2.0 0.0 8 23
- 0.264476 1 3 tcp 1040 ------- 0 0.0 2.0 16 25
- 0.264602 3 4 tcp 1040 ------- 0 0.0 2.0 11 18
r 0.265215 4 2 tcp 1040 ------- 0 0.0 2.0 9 15
+ 0.265215 2 4 ack 40 ------- 0 2.0 0.0 9 26
- 0.265215 2 4 ack 40 ------- 0 2.0 0.0 9 26
r 0.265408 1 0 ack 40 ------- 0 2.0 0.0 8 23
+ 0.265408 0 1 tcp 1040 ------- 0 0.0 2.0 17 27
- 0.265408 0 1 tcp 1040 ------- 0 0.0 2.0 17 27
+ 0.265408 0 1 tcp 1040 ------- 0 0.0 2.0 18 28
r 0.265476 1 3 tcp 1040 ------- 0 0.0 2.0 15 24
+ 0.265476 3 4 tcp 1040 ------- 0 0.0 2.0 15 24
r 0.265602 3 4 tcp 1040 ------- 0 0.0 2.0 10 16
+ 0.265602 4 2 tcp 1040 ------- 0 0.0 2.0 10 16
- 0.265602 4 2 tcp 1040 ------- 0 0.0 2.0 10 16
r 0.266322 2 4 ack 40 ------- 0 2.0 0.0 9 26
+ 0.266322 4 3 ack 40 ------- 0 2.0 0.0 9 26
- 0.266322 4 3 ack 40 ------- 0 2.0 0.0 9 26
- 0.266448 0 1 tcp 1040 ------- 0 0.0 2.0 18 28
r 0.266665 1 3 tcp 1040 ------- 0 0.0 2.0 16 25
+ 0.266665 3 4 tcp 1040 ------- 0 0.0 2.0 16 25
d 0.266665 3 4 tcp 1040 ------- 0 0.0 2.0 16 25
r 0.267448 0 1 tcp 1040 ------- 0 0.0 2.0 17 27
+ 0.267448 1 3 tcp 1040 ------- 0 0.0 2.0 17 27
- 0.267448 1 3 tcp 1040 ------- 0 0.0 2.0 17 27
r 0.267482 4 3 ack 40 ------- 0 2.0 0.0 9 26
+ 0.267482 3 1 ack 40 ------- 0 2.0 0.0 9 26
- 0.267482 3 1 ack 40 ------- 0 2.0 0.0 9 26
r 0.268488 0 1 tcp 1040 ------- 0 0.0 2.0 18 28
+ 0.268488 1 3 tcp 1040 ------- 0 0.0 2.0 18 28
r 0.268528 3 1 ack 40 ------- 0 2.0 0.0 9 26
+ 0.268528 1 0 ack 40 ------- 0 2.0 0.0 9 26
- 0.268528 1 0 ack 40 ------- 0 2.0 0.0 9 26
- 0.268636 1 3 tcp 1040 ------- 0 0.0 2.0 18 28
- 0.268762 3 4 tcp 1040 ------- 0 0.0 2.0 12 19
r 0.269375 4 2 tcp 1040 ------- 0 0.0 2.0 10 16
+ 0.269375 2 4 ack 40 ------- 0 2.0 0.0 10 29
- 0.269375 2 4 ack 40 ------- 0 2.0 0.0 10 29
r 0.269568 1 0 ack 40 ------- 0 2.0 0.0 9 26
+ 0.269568 0 1 tcp 1040 ------- 0 0.0 2.0 19 30
- 0.269568 0 1 tcp 1040 ------- 0 0.0 2.0 19 30
+ 0.269568 0 1 tcp 1040 ------- 0 0.0 2.0 20 31
r 0.269636 1 3 tcp 1040 ------- 0 0.0 2.0 17 27
+ 0.269636 3 4 tcp 1040 ------- 0 0.0 2.0 17 27
r 0.269762 3 4 tcp 1040 ------- 0 0.0 2.0 11 18
+ 0.269762 4 2 tcp 1040 ------- 0 0.0 2.0 11 18
- 0.269762 4 2 tcp 1040 ------- 0 0.0 2.0 11 18
r 0.270482 2 4 ack 40 ------- 0 2.0 0.0 10 29
+ 0.270482 4 3 ack 40 ------- 0 2.0 0.0 10 29
- 0.270482 4 3 ack 40 ------- 0 2.0 0.0 10 29
- 0.270608 0 1 tcp 1040 ------- 0 0.0 2.0 20 31
r 0.270825 1 3 tcp 1040 ------- 0 0.0 2.0 18 28
+ 0.270825 3 4 tcp 1040 ------- 0 0.0 2.0 18 28
d 0.270825 3 4 tcp 1040 ------- 0 0.0 2.0 18 28
r 0.271608 0 1 tcp 1040 ------- 0 0.0 2.0 19 30
+ 0.271608 1 3 tcp 1040 ------- 0 0.0 2.0 19 30
- 0.271608 1 3 tcp 1040 ------- 0 0.0 2.0 19 30
r 0.271642 4 3 ack 40 ------- 0 2.0 0.0 10 29
+ 0.271642 3 1 ack 40 ------- 0 2.0 0.0 10 29
- 0.271642 3 1 ack 40 ------- 0 2.0 0.0 10 29
r 0.272648 0 1 tcp 1040 ------- 0 0.0 2.0 20 31
+ 0.272648 1 3 tcp 1040 ------- 0 0.0 2.0 20 31
r 0.272688 3 1 ack 40 ------- 0 2.0 0.0 10 29
+ 0.272688 1 0 ack 40 ------- 0 2.0 0.0 10 29
- 0.272688 1 0 ack 40 ------- 0 2.0 0.0 10 29
- 0.272796 1 3 tcp 1040 ------- 0 0.0 2.0 20 31
- 0.272922 3 4 tcp 1040 ------- 0 0.0 2.0 13 20
r 0.273535 4 2 tcp 1040 ------- 0 0.0 2.0 11 18
+ 0.273535 2 4 ack 40 ------- 0 2.0 0.0 11 32
- 0.273535 2 4 ack 40 ------- 0 2.0 0.0 11 32
r 0.273728 1 0 ack 40 ------- 0 2.0 0.0 10 29
+ 0.273728 0 1 tcp 1040 ------- 0 0.0 2.0 21 33
- 0.273728 0 1 tcp 1040 ------- 0 0.0 2.0 21 33
+ 0.273728 0 1 tcp 1040 ------- 0 0.0 2.0 22 34
r 0.273796 1 3 tcp 1040 ------- 0 0.0 2.0 19 30
+ 0.273796 3 4 tcp 1040 ------- 0 0.0 2.0 19 30
r 0.273922 3 4 tcp 1040 ------- 0 0.0 2.0 12 19
+ 0.273922 4 2 tcp 1040 ------- 0 0.0 2.0 12 19
- 0.273922 4 2 tcp 1040 ------- 0 0.0 2.0 12 19
r 0.274642 2 4 ack 40 ------- 0 2.0 0.0 11 32
+ 0.274642 4 3 ack 40 ------- 0 2.0 0.0 11 32
- 0.274642 4 3 ack 40 ------- 0 2.0 0.0 11 32
- 0.274768 0 1 tcp 1040 ------- 0 0.0 2.0 22 34
r 0.274985 1 3 tcp 1040 ------- 0 0.0 2.0 20 31
+ 0.274985 3 4 tcp 1040 ------- 0 0.0 2.0 20 31
d 0.274985 3 4 tcp 1040 ------- 0 0.0 2.0 20 31
r 0.275768 0 1 tcp 1040 ------- 0 0.0 2.0 21 33
+ 0.275768 1 3 tcp 1040 ------- 0 0.0 2.0 21 33
- 0.275768 1 3 tcp 1040 ------- 0 0.0 2.0 21 33
r 0.275802 4 3 ack 40 ------- 0 2.0 0.0 11 32
+ 0.275802 3 1 ack 40 ------- 0 2.0 0.0 11 32
- 0.275802 3 1 ack 40 ------- 0 2.0 0.0 11 32
r 0.276808 0 1 tcp 1040 ------- 0 0.0 2.0 22 34
+ 0.276808 1 3 tcp 1040 ------- 0 0.0 2.0 22 34
r 0.276848 3 1 ack 40 ------- 0 2.0 0.0 11 32
+ 0.276848 1 0 ack 40 ------- 0 2.0 0.0 11 32
- 0.276848 1 0 ack 40 ------- 0 2.0 0.0 11 32
- 0.276956 1 3 tcp 1040 ------- 0 0.0 2.0 22 34
- 0.277082 3 4 tcp 1040 ------- 0 0.0 2.0 14 21
r 0.277695 4 2 tcp 1040 ------- 0 0.0 2.0 12 19
+ 0.277695 2 4 ack 40 ------- 0 2.0 0.0 12 35
- 0.277695 2 4 ack 40 ------- 0 2.0 0.0 12 35
r 0.277888 1 0 ack 40 ------- 0 2.0 0.0 11 32
+ 0.277888 0 1 tcp 1040 ------- 0 0.0 2.0 23 36
- 0.277888 0 1 tcp 1040 ------- 0 0.0 2.0 23 36
+ 0.277888 0 1 tcp 1040 ------- 0 0.0 2.0 24 37
r 0.277956 1 3 tcp 1040 ------- 0 0.0 2.0 21 33
+ 0.277956 3 4 tcp 1040 ------- 0 0.0 2.0 21 33
r 0.278082 3 4 tcp 1040 ------- 0 0.0 2.0 13 20
+ 0.278082 4 2 tcp 1040 ------- 0 0.0 2.0 13 20
- 0.278082 4 2 tcp 1040 ------- 0 0.0 2.0 13 20
r 0.278802 2 4 ack 40 ------- 0 2.0 0.0 12 35
+ 0.278802 4 3 ack 40 ------- 0 2.0 0.0 12 35
- 0.278802 4 3 ack 40 ------- 0 2.0 0.0 12 35
- 0.278928 0 1 tcp 1040 ------- 0 0.0 2.0 24 37
r 0.279145 1 3 tcp 1040 ------- 0 0.0 2.0 22 34
+ 0.279145 3 4 tcp 1040 ------- 0 0.0 2.0 22 34
d 0.279145 3 4 tcp 1040 ------- 0 0.0 2.0 22 34
r 0.279928 0 1 tcp 1040 ------- 0 0.0 2.0 23 36
+ 0.279928 1 3 tcp 1040 ------- 0 0.0 2.0 23 36
- 0.279928 1 3 tcp 1040 ------- 0 0.0 2.0 23 36
r 0.279962 4 3 ack 40 ------- 0 2.0 0.0 12 35
+ 0.279962 3 1 ack 40 ------- 0 2.0 0.0 12 35
- 0.279962 3 1 ack 40 ------- 0 2.0 0.0 12 35
r 0.280968 0 1 tcp 1040 ------- 0 0.0 2.0 24 37
+ 0.280968 1 3 tcp 1040 ------- 0 0.0 2.0 24 37
r 0.281008 3 1 ack 40 ------- 0 2.0 0.0 12 35
+ 0.281008 1 0 ack 40 ------- 0 2.0 0.0 12 35
- 0.281008 1 0 ack 40 ------- 0 2.0 0.0 12 35
- 0.281116 1 3 tcp 1040 ------- 0 0.0 2.0 24 37
- 0.281242 3 4 tcp 1040 ------- 0 0.0 2.0 15 24
r 0.281855 4 2 tcp 1040 ------- 0 0.0 2.0 13 20
+ 0.281855 2 4 ack 40 ------- 0 2.0 0.0 13 38
- 0.281855 2 4 ack 40 ------- 0 2.0 0.0 13 38
r 0.282048 1 0 ack 40 ------- 0 2.0 0.0 12 35
+ 0.282048 0 1 tcp 1040 ------- 0 0.0 2.0 25 39
- 0.282048 0 1 tcp 1040 ------- 0 0.0 2.0 25 39
+ 0.282048 0 1 tcp 1040 ------- 0 0.0 2.0 26 40
r 0.282116 1 3 tcp 1040 ------- 0 0.0 2.0 23 36
+ 0.282116 3 4 tcp 1040 ------- 0 0.0 2.0 23 36
r 0.282242 3 4 tcp 1040 ------- 0 0.0 2.0 14 21
+ 0.282242 4 2 tcp 1040 ------- 0 0.0 2.0 14 21
- 0.282242 4 2 tcp 1040 ------- 0 0.0 2.0 14 21
r 0.282962 2 4 ack 40 ------- 0 2.0 0.0 13 38
+ 0.282962 4 3 ack 40 ------- 0 2.0 0.0 13 38
- 0.282962 4 3 ack 40 ------- 0 2.0 0.0 13 38
- 0.283088 0 1 tcp 1040 ------- 0 0.0 2.0 26 40
r 0.283305 1 3 tcp 1040 ------- 0 0.0 2.0 24 37
+ 0.283305 3 4 tcp 1040 ------- 0 0.0 2.0 24 37
d 0.283305 3 4 tcp 1040 ------- 0 0.0 2.0 24 37
r 0.284088 0 1 tcp 1040 ------- 0 0.0 2.0 25 39
+ 0.284088 1 3 tcp 1040 ------- 0 0.0 2.0 25 39
- 0.284088 1 3 tcp 1040 ------- 0 0.0 2.0 25 39
r 0.284122 4 3 ack 40 ------- 0 2.0 0.0 13 38
+ 0.284122 3 1 ack 40 ------- 0 2.0 0.0 13 38
- 0.284122 3 1 ack 40 ------- 0 2.0 0.0 13 38
r 0.285128 0 1 tcp 1040 ------- 0 0.0 2.0 26 40
+ 0.285128 1 3 tcp 1040 ------- 0 0.0 2.0 26 40
r 0.285168 3 1 ack 40 ------- 0 2.0 0.0 13 38
+ 0.285168 1 0 ack 40 ------- 0 2.0 0.0 13 38
- 0.285168 1 0 ack 40 ------- 0 2.0 0.0 13 38
- 0.285276 1 3 tcp 1040 ------- 0 0.0 2.0 26 40
- 0.285402 3 4 tcp 1040 ------- 0 0.0 2.0 17 27
r 0.286015 4 2 tcp 1040 ------- 0 0.0 2.0 14 21
+ 0.286015 2 4 ack 40 ------- 0 2.0 0.0 14 41
- 0.286015 2 4 ack 40 ------- 0 2.0 0.0 14 41
r 0.286208 1 0 ack 40 ------- 0 2.0 0.0 13 38
+ 0.286208 0 1 tcp 1040 ------- 0 0.0 2.0 27 42
- 0.286208 0 1 tcp 1040 ------- 0 0.0 2.0 27 42
+ 0.286208 0 1 tcp 1040 ------- 0 0.0 2.0 28 43
r 0.286276 1 3 tcp 1040 ------- 0 0.0 2.0 25 39
+ 0.286276 3 4 tcp 1040 ------- 0 0.0 2.0 25 39
r 0.286402 3 4 tcp 1040 ------- 0 0.0 2.0 15 24
+ 0.286402 4 2 tcp 1040 ------- 0 0.0 2.0 15 24
- 0.286402 4 2 tcp 1040 ------- 0 0.0 2.0 15 24
r 0.287122 2 4 ack 40 ------- 0 2.0 0.0 14 41
+ 0.287122 4 3 ack 40 ------- 0 2.0 0.0 14 41
- 0.287122 4 3 ack 40 ------- 0 2.0 0.0 14 41
- 0.287248 0 1 tcp 1040 ------- 0 0.0 2.0 28 43
r 0.287465 1 3 tcp 1040 ------- 0 0.0 2.0 26 40
+ 0.287465 3 4 tcp 1040 ------- 0 0.0 2.0 26 40
d 0.287465 3 4 tcp 1040 ------- 0 0.0 2.0 26 40
r 0.288248 0 1 tcp 1040 ------- 0 0.0 2.0 27 42
+ 0.288248 1 3 tcp 1040 ------- 0 0.0 2.0 27 42
- 0.288248 1 3 tcp 1040 ------- 0 0.0 2.0 27 42
r 0.288282 4 3 ack 40 ------- 0 2.0 0.0 14 41
+ 0.288282 3 1 ack 40 ------- 0 2.0 0.0 14 41
- 0.288282 3 1 ack 40 ------- 0 2.0 0.0 14 41
r 0.289288 0 1 tcp 1040 ------- 0 0.0 2.0 28 43
+ 0.289288 1 3 tcp 1040 ------- 0 0.0 2.0 28 43
r 0.289328 3 1 ack 40 ------- 0 2.0 0.0 14 41
+ 0.289328 1 0 ack 40 ------- 0 2.0 0.0 14 41
- 0.289328 1 0 ack 40 ------- 0 2.0 0.0 14 41
- 0.289436 1 3 tcp 1040 ------- 0 0.0 2.0 28 43
- 0.289562 3 4 tcp 1040 ------- 0 0.0 2.0 19 30
r 0.290175 4 2 tcp 1040 ------- 0 0.0 2.0 15 24
+ 0.290175 2 4 ack 40 ------- 0 2.0 0.0 15 44
- 0.290175 2 4 ack 40 ------- 0 2.0 0.0 15 44
r 0.290368 1 0 ack 40 ------- 0 2.0 0.0 14 41
+ 0.290368 0 1 tcp 1040 ------- 0 0.0 2.0 29 45
- 0.290368 0 1 tcp 1040 ------- 0 0.0 2.0 29 45
+ 0.290368 0 1 tcp 1040 ------- 0 0.0 2.0 30 46
r 0.290436 1 3 tcp 1040 ------- 0 0.0 2.0 27 42
+ 0.290436 3 4 tcp 1040 ------- 0 0.0 2.0 27 42
r 0.290562 3 4 tcp 1040 ------- 0 0.0 2.0 17 27
+ 0.290562 4 2 tcp 1040 ------- 0 0.0 2.0 17 27
- 0.290562 4 2 tcp 1040 ------- 0 0.0 2.0 17 27
r 0.291282 2 4 ack 40 ------- 0 2.0 0.0 15 44
+ 0.291282 4 3 ack 40 ------- 0 2.0 0.0 15 44
- 0.291282 4 3 ack 40 ------- 0 2.0 0.0 15 44
- 0.291408 0 1 tcp 1040 ------- 0 0.0 2.0 30 46
r 0.291625 1 3 tcp 1040 ------- 0 0.0 2.0 28 43
+ 0.291625 3 4 tcp 1040 ------- 0 0.0 2.0 28 43
d 0.291625 3 4 tcp 1040 ------- 0 0.0 2.0 28 43
r 0.292408 0 1 tcp 1040 ------- 0 0.0 2.0 29 45
+ 0.292408 1 3 tcp 1040 ------- 0 0.0 2.0 29 45
- 0.292408 1 3 tcp 1040 ------- 0 0.0 2.0 29 45
r 0.292442 4 3 ack 40 ------- 0 2.0 0.0 15 44
+ 0.292442 3 1 ack 40 ------- 0 2.0 0.0 15 44
- 0.292442 3 1 ack 40 ------- 0 2.0 0.0 15 44
r 0.293448 0 1 tcp 1040 ------- 0 0.0 2.0 30 46
+ 0.293448 1 3 tcp 1040 ------- 0 0.0 2.0 30 46
r 0.293488 3 1 ack 40 ------- 0 2.0 0.0 15 44
+ 0.293488 1 0 ack 40 ------- 0 2.0 0.0 15 44
- 0.293488 1 0 ack 40 ------- 0 2.0 0.0 15 44
- 0.293596 1 3 tcp 1040 ------- 0 0.0 2.0 30 46
- 0.293722 3 4 tcp 1040 ------- 0 0.0 2.0 21 33
r 0.294335 4 2 tcp 1040 ------- 0 0.0 2.0 17 27
+ 0.294335 2 4 ack 40 ------- 0 2.0 0.0 15 47
- 0.294335 2 4 ack 40 ------- 0 2.0 0.0 15 47
r 0.294528 1 0 ack 40 ------- 0 2.0 0.0 15 44
+ 0.294528 0 1 tcp 1040 ------- 0 0.0 2.0 31 48
- 0.294528 0 1 tcp 1040 ------- 0 0.0 2.0 31 48
+ 0.294528 0 1 tcp 1040 ------- 0 0.0 2.0 32 49
r 0.294596 1 3 tcp 1040 ------- 0 0.0 2.0 29 45
+ 0.294596 3 4 tcp 1040 ------- 0 0.0 2.0 29 45
r 0.294722 3 4 tcp 1040 ------- 0 0.0 2.0 19 30
+ 0.294722 4 2 tcp 1040 ------- 0 0.0 2.0 19 30
- 0.294722 4 2 tcp 1040 ------- 0 0.0 2.0 19 30
r 0.295442 2 4 ack 40 ------- 0 2.0 0.0 15 47
+ 0.295442 4 3 ack 40 ------- 0 2.0 0.0 15 47
- 0.295442 4 3 ack 40 ------- 0 2.0 0.0 15 47
- 0.295568 0 1 tcp 1040 ------- 0 0.0 2.0 32 49
r 0.295785 1 3 tcp 1040 ------- 0 0.0 2.0 30 46
+ 0.295785 3 4 tcp 1040 ------- 0 0.0 2.0 30 46
d 0.295785 3 4 tcp 1040 ------- 0 0.0 2.0 30 46
r 0.296568 0 1 tcp 1040 ------- 0 0.0 2.0 31 48
+ 0.296568 1 3 tcp 1040 ------- 0 0.0 2.0 31 48
- 0.296568 1 3 tcp 1040 ------- 0 0.0 2.0 31 48
r 0.296602 4 3 ack 40 ------- 0 2.0 0.0 15 47
+ 0.296602 3 1 ack 40 ------- 0 2.0 0.0 15 47
- 0.296602 3 1 ack 40 ------- 0 2.0 0.0 15 47
r 0.297608 0 1 tcp 1040 ------- 0 0.0 2.0 32 49
+ 0.297608 1 3 tcp 1040 ------- 0 0.0 2.0 32 49
r 0.297648 3 1 ack 40 ------- 0 2.0 0.0 15 47
+ 0.297648 1 0 ack 40 ------- 0 2.0 0.0 15 47
- 0.297648 1 0 ack 40 ------- 0 2.0 0.0 15 47
- 0.297756 1 3 tcp 1040 ------- 0 0.0 2.0 32 49
- 0.297882 3 4 tcp 1040 ------- 0 0.0 2.0 23 36
r 0.298495 4 2 tcp 1040 ------- 0 0.0 2.0 19 30
+ 0.298495 2 4 ack 40 ------- 0 2.0 0.0 15 50
- 0.298495 2 4 ack 40 ------- 0 2.0 0.0 15 50
r 0.298688 1 0 ack 40 ------- 0 2.0 0.0 15 47
+ 0.298688 0 1 tcp 1040 ------- 0 0.0 2.0 33 51
- 0.298688 0 1 tcp 1040 ------- 0 0.0 2.0 33 51
r 0.298756 1 3 tcp 1040 ------- 0 0.0 2.0 31 48
+ 0.298756 3 4 tcp 1040 ------- 0 0.0 2.0 31 48
r 0.298882 3 4 tcp 1040 ------- 0 0.0 2.0 21 33
+ 0.298882 4 2 tcp 1040 ------- 0 0.0 2.0 21 33
- 0.298882 4 2 tcp 1040 ------- 0 0.0 2.0 21 33
r 0.299602 2 4 ack 40 ------- 0 2.0 0.0 15 50
+ 0.299602 4 3 ack 40 ------- 0 2.0 0.0 15 50
- 0.299602 4 3 ack 40 ------- 0 2.0 0.0 15 50
r 0.299945 1 3 tcp 1040 ------- 0 0.0 2.0 32 49
+ 0.299945 3 4 tcp 1040 ------- 0 0.0 2.0 32 49
d 0.299945 3 4 tcp 1040 ------- 0 0.0 2.0 32 49
r 0.300728 0 1 tcp 1040 ------- 0 0.0 2.0 33 51
+ 0.300728 1 3 tcp 1040 ------- 0 0.0 2.0 33 51
- 0.300728 1 3 tcp 1040 ------- 0 0.0 2.0 33 51
r 0.300762 4 3 ack 40 ------- 0 2.0 0.0 15 50
+ 0.300762 3 1 ack 40 ------- 0 2.0 0.0 15 50
- 0.300762 3 1 ack 40 ------- 0 2.0 0.0 15 50
r 0.301808 3 1 ack 40 ------- 0 2.0 0.0 15 50
+ 0.301808 1 0 ack 40 ------- 0 2.0 0.0 15 50
- 0.301808 1 0 ack 40 ------- 0 2.0 0.0 15 50
- 0.302042 3 4 tcp 1040 ------- 0 0.0 2.0 25 39
r 0.302655 4 2 tcp 1040 ------- 0 0.0 2.0 21 33
+ 0.302655 2 4 ack 40 ------- 0 2.0 0.0 15 52
- 0.302655 2 4 ack 40 ------- 0 2.0 0.0 15 52
r 0.302848 1 0 ack 40 ------- 0 2.0 0.0 15 50
+ 0.302848 0 1 tcp 1040 ------- 0 0.0 2.0 34 53
- 0.302848 0 1 tcp 1040 ------- 0 0.0 2.0 34 53
r 0.302916 1 3 tcp 1040 ------- 0 0.0 2.0 33 51
+ 0.302916 3 4 tcp 1040 ------- 0 0.0 2.0 33 51
r 0.303042 3 4 tcp 1040 ------- 0 0.0 2.0 23 36
+ 0.303042 4 2 tcp 1040 ------- 0 0.0 2.0 23 36
- 0.303042 4 2 tcp 1040 ------- 0 0.0 2.0 23 36
r 0.303762 2 4 ack 40 ------- 0 2.0 0.0 15 52
+ 0.303762 4 3 ack 40 ------- 0 2.0 0.0 15 52
- 0.303762 4 3 ack 40 ------- 0 2.0 0.0 15 52
r 0.304888 0 1 tcp 1040 ------- 0 0.0 2.0 34 53
+ 0.304888 1 3 tcp 1040 ------- 0 0.0 2.0 34 53
- 0.304888 1 3 tcp 1040 ------- 0 0.0 2.0 34 53
r 0.304922 4 3 ack 40 ------- 0 2.0 0.0 15 52
+ 0.304922 3 1 ack 40 ------- 0 2.0 0.0 15 52
- 0.304922 3 1 ack 40 ------- 0 2.0 0.0 15 52
r 0.305968 3 1 ack 40 ------- 0 2.0 0.0 15 52
+ 0.305968 1 0 ack 40 ------- 0 2.0 0.0 15 52
- 0.305968 1 0 ack 40 ------- 0 2.0 0.0 15 52
- 0.306202 3 4 tcp 1040 ------- 0 0.0 2.0 27 42
r 0.306815 4 2 tcp 1040 ------- 0 0.0 2.0 23 36
+ 0.306815 2 4 ack 40 ------- 0 2.0 0.0 15 54
- 0.306815 2 4 ack 40 ------- 0 2.0 0.0 15 54
r 0.307008 1 0 ack 40 ------- 0 2.0 0.0 15 52
+ 0.307008 0 1 tcp 1040 ---A--- 0 0.0 2.0 16 55
- 0.307008 0 1 tcp 1040 ---A--- 0 0.0 2.0 16 55
r 0.307076 1 3 tcp 1040 ------- 0 0.0 2.0 34 53
+ 0.307076 3 4 tcp 1040 ------- 0 0.0 2.0 34 53
r 0.307202 3 4 tcp 1040 ------- 0 0.0 2.0 25 39
+ 0.307202 4 2 tcp 1040 ------- 0 0.0 2.0 25 39
- 0.307202 4 2 tcp 1040 ------- 0 0.0 2.0 25 39
r 0.307922 2 4 ack 40 ------- 0 2.0 0.0 15 54
+ 0.307922 4 3 ack 40 ------- 0 2.0 0.0 15 54
- 0.307922 4 3 ack 40 ------- 0 2.0 0.0 15 54
r 0.309048 0 1 tcp 1040 ---A--- 0 0.0 2.0 16 55
+ 0.309048 1 3 tcp 1040 ---A--- 0 0.0 2.0 16 55
- 0.309048 1 3 tcp 1040 ---A--- 0 0.0 2.0 16 55
r 0.309082 4 3 ack 40 ------- 0 2.0 0.0 15 54
+ 0.309082 3 1 ack 40 ------- 0 2.0 0.0 15 54
- 0.309082 3 1 ack 40 ------- 0 2.0 0.0 15 54
r 0.310128 3 1 ack 40 ------- 0 2.0 0.0 15 54
+ 0.310128 1 0 ack 40 ------- 0 2.0 0.0 15 54
- 0.310128 1 0 ack 40 ------- 0 2.0 0.0 15 54
- 0.310362 3 4 tcp 1040 ------- 0 0.0 2.0 29 45
r 0.310975 4 2 tcp 1040 ------- 0 0.0 2.0 25 39
+ 0.310975 2 4 ack 40 ------- 0 2.0 0.0 15 56
- 0.310975 2 4 ack 40 ------- 0 2.0 0.0 15 56
r 0.311168 1 0 ack 40 ------- 0 2.0 0.0 15 54
r 0.311236 1 3 tcp 1040 ---A--- 0 0.0 2.0 16 55
+ 0.311236 3 4 tcp 1040 ---A--- 0 0.0 2.0 16 55
r 0.311362 3 4 tcp 1040 ------- 0 0.0 2.0 27 42
+ 0.311362 4 2 tcp 1040 ------- 0 0.0 2.0 27 42
- 0.311362 4 2 tcp 1040 ------- 0 0.0 2.0 27 42
r 0.312082 2 4 ack 40 ------- 0 2.0 0.0 15 56
+ 0.312082 4 3 ack 40 ------- 0 2.0 0.0 15 56
- 0.312082 4 3 ack 40 ------- 0 2.0 0.0 15 56
r 0.313242 4 3 ack 40 ------- 0 2.0 0.0 15 56
+ 0.313242 3 1 ack 40 ------- 0 2.0 0.0 15 56
- 0.313242 3 1 ack 40 ------- 0 2.0 0.0 15 56
r 0.314288 3 1 ack 40 ------- 0 2.0 0.0 15 56
+ 0.314288 1 0 ack 40 ------- 0 2.0 0.0 15 56
- 0.314288 1 0 ack 40 ------- 0 2.0 0.0 15 56
- 0.314522 3 4 tcp 1040 ------- 0 0.0 2.0 31 48
r 0.315135 4 2 tcp 1040 ------- 0 0.0 2.0 27 42
+ 0.315135 2 4 ack 40 ------- 0 2.0 0.0 15 57
- 0.315135 2 4 ack 40 ------- 0 2.0 0.0 15 57
r 0.315328 1 0 ack 40 ------- 0 2.0 0.0 15 56
r 0.315522 3 4 tcp 1040 ------- 0 0.0 2.0 29 45
+ 0.315522 4 2 tcp 1040 ------- 0 0.0 2.0 29 45
- 0.315522 4 2 tcp 1040 ------- 0 0.0 2.0 29 45
r 0.316242 2 4 ack 40 ------- 0 2.0 0.0 15 57
+ 0.316242 4 3 ack 40 ------- 0 2.0 0.0 15 57
- 0.316242 4 3 ack 40 ------- 0 2.0 0.0 15 57
r 0.317402 4 3 ack 40 ------- 0 2.0 0.0 15 57
+ 0.317402 3 1 ack 40 ------- 0 2.0 0.0 15 57
- 0.317402 3 1 ack 40 ------- 0 2.0 0.0 15 57
r 0.318448 3 1 ack 40 ------- 0 2.0 0.0 15 57
+ 0.318448 1 0 ack 40 ------- 0 2.0 0.0 15 57
- 0.318448 1 0 ack 40 ------- 0 2.0 0.0 15 57
- 0.318682 3 4 tcp 1040 ------- 0 0.0 2.0 33 51
r 0.319295 4 2 tcp 1040 ------- 0 0.0 2.0 29 45
+ 0.319295 2 4 ack 40 ------- 0 2.0 0.0 15 58
- 0.319295 2 4 ack 40 ------- 0 2.0 0.0 15 58
r 0.319488 1 0 ack 40 ------- 0 2.0 0.0 15 57