+ 0.2 0 1 tcp 40 ------- 0 0.0 2.0 0 0
- 0.2 0 1 tcp 40 ------- 0 0.0 2.0 0 0
r 0.20104 0 1 tcp 40 ------- 0 0.0 2.0 0 0
+ 0.20104 1 2 tcp 40 ------- 0 0.0 2.0 0 0
- 0.20104 1 2 tcp 40 ------- 0 0.0 2.0 0 0
r 0.203208 1 2 tcp 40 ------- 0 0.0 2.0 0 0
+ 0.203208 2 1 ack 40 ------- 0 2.0 0.0 0 1
- 0.203208 2 1 ack 40 ------- 0 2.0 0.0 0 1
r 0.205377 2 1 ack 40 ------- 0 2.0 0.0 0 1
+ 0.205377 1 0 ack 40 ------- 0 2.0 0.0 0 1
- 0.205377 1 0 ack 40 ------- 0 2.0 0.0 0 1
r 0.206417 1 0 ack 40 ------- 0 2.0 0.0 0 1
+ 0.206417 0 1 tcp 1040 ------- 0 0.0 2.0 1 2
- 0.206417 0 1 tcp 1040 ------- 0 0.0 2.0 1 2
+ 0.206417 0 1 tcp 1040 ------- 0 0.0 2.0 2 3
- 0.207457 0 1 tcp 1040 ------- 0 0.0 2.0 2 3
r 0.208457 0 1 tcp 1040 ------- 0 0.0 2.0 1 2
+ 0.208457 1 2 tcp 1040 ------- 0 0.0 2.0 1 2
- 0.208457 1 2 tcp 1040 ------- 0 0.0 2.0 1 2
r 0.209497 0 1 tcp 1040 ------- 0 0.0 2.0 2 3
+ 0.209497 1 2 tcp 1040 ------- 0 0.0 2.0 2 3
- 0.212836 1 2 tcp 1040 ------- 0 0.0 2.0 2 3
r 0.214836 1 2 tcp 1040 ------- 0 0.0 2.0 1 2
+ 0.214836 2 1 ack 40 ------- 0 2.0 0.0 1 4
- 0.214836 2 1 ack 40 ------- 0 2.0 0.0 1 4
r 0.217004 2 1 ack 40 ------- 0 2.0 0.0 1 4
+ 0.217004 1 0 ack 40 ------- 0 2.0 0.0 1 4
- 0.217004 1 0 ack 40 ------- 0 2.0 0.0 1 4
r 0.218044 1 0 ack 40 ------- 0 2.0 0.0 1 4
+ 0.218044 0 1 tcp 1040 ------- 0 0.0 2.0 3 5
- 0.218044 0 1 tcp 1040 ------- 0 0.0 2.0 3 5
+ 0.218044 0 1 tcp 1040 ------- 0 0.0 2.0 4 6
- 0.219084 0 1 tcp 1040 ------- 0 0.0 2.0 4 6
r 0.219215 1 2 tcp 1040 ------- 0 0.0 2.0 2 3
+ 0.219215 2 1 ack 40 ------- 0 2.0 0.0 2 7
- 0.219215 2 1 ack 40 ------- 0 2.0 0.0 2 7
r 0.220084 0 1 tcp 1040 ------- 0 0.0 2.0 3 5
+ 0.220084 1 2 tcp 1040 ------- 0 0.0 2.0 3 5
- 0.220084 1 2 tcp 1040 ------- 0 0.0 2.0 3 5
r 0.221124 0 1 tcp 1040 ------- 0 0.0 2.0 4 6
+ 0.221124 1 2 tcp 1040 ------- 0 0.0 2.0 4 6
r 0.221383 2 1 ack 40 ------- 0 2.0 0.0 2 7
+ 0.221383 1 0 ack 40 ------- 0 2.0 0.0 2 7
- 0.221383 1 0 ack 40 ------- 0 2.0 0.0 2 7
r 0.222423 1 0 ack 40 ------- 0 2.0 0.0 2 7
+ 0.222423 0 1 tcp 1040 ------- 0 0.0 2.0 5 8
- 0.222423 0 1 tcp 1040 ------- 0 0.0 2.0 5 8
+ 0.222423 0 1 tcp 1040 ------- 0 0.0 2.0 6 9
- 0.223463 0 1 tcp 1040 ------- 0 0.0 2.0 6 9
- 0.224463 1 2 tcp 1040 ------- 0 0.0 2.0 4 6
r 0.224463 0 1 tcp 1040 ------- 0 0.0 2.0 5 8
+ 0.224463 1 2 tcp 1040 ------- 0 0.0 2.0 5 8
r 0.225503 0 1 tcp 1040 ------- 0 0.0 2.0 6 9
+ 0.225503 1 2 tcp 1040 ------- 0 0.0 2.0 6 9
r 0.226463 1 2 tcp 1040 ------- 0 0.0 2.0 3 5
+ 0.226463 2 1 ack 40 ------- 0 2.0 0.0 3 10
- 0.226463 2 1 ack 40 ------- 0 2.0 0.0 3 10
r 0.228632 2 1 ack 40 ------- 0 2.0 0.0 3 10
+ 0.228632 1 0 ack 40 ------- 0 2.0 0.0 3 10
- 0.228632 1 0 ack 40 ------- 0 2.0 0.0 3 10
- 0.228842 1 2 tcp 1040 ------- 0 0.0 2.0 5 8
r 0.229672 1 0 ack 40 ------- 0 2.0 0.0 3 10
+ 0.229672 0 1 tcp 1040 ------- 0 0.0 2.0 7 11
- 0.229672 0 1 tcp 1040 ------- 0 0.0 2.0 7 11
+ 0.229672 0 1 tcp 1040 ------- 0 0.0 2.0 8 12
- 0.230712 0 1 tcp 1040 ------- 0 0.0 2.0 8 12
r 0.230842 1 2 tcp 1040 ------- 0 0.0 2.0 4 6
+ 0.230842 2 1 ack 40 ------- 0 2.0 0.0 4 13
- 0.230842 2 1 ack 40 ------- 0 2.0 0.0 4 13
r 0.231712 0 1 tcp 1040 ------- 0 0.0 2.0 7 11
+ 0.231712 1 2 tcp 1040 ------- 0 0.0 2.0 7 11
r 0.232752 0 1 tcp 1040 ------- 0 0.0 2.0 8 12
+ 0.232752 1 2 tcp 1040 ------- 0 0.0 2.0 8 12
r 0.233011 2 1 ack 40 ------- 0 2.0 0.0 4 13
+ 0.233011 1 0 ack 40 ------- 0 2.0 0.0 4 13
- 0.233011 1 0 ack 40 ------- 0 2.0 0.0 4 13
- 0.233221 1 2 tcp 1040 ------- 0 0.0 2.0 6 9
r 0.234051 1 0 ack 40 ------- 0 2.0 0.0 4 13
+ 0.234051 0 1 tcp 1040 ------- 0 0.0 2.0 9 14
- 0.234051 0 1 tcp 1040 ------- 0 0.0 2.0 9 14
+ 0.234051 0 1 tcp 1040 ------- 0 0.0 2.0 10 15
- 0.235091 0 1 tcp 1040 ------- 0 0.0 2.0 10 15
r 0.235221 1 2 tcp 1040 ------- 0 0.0 2.0 5 8
+ 0.235221 2 1 ack 40 ------- 0 2.0 0.0 5 16
- 0.235221 2 1 ack 40 ------- 0 2.0 0.0 5 16
r 0.236091 0 1 tcp 1040 ------- 0 0.0 2.0 9 14
+ 0.236091 1 2 tcp 1040 ------- 0 0.0 2.0 9 14
r 0.237131 0 1 tcp 1040 ------- 0 0.0 2.0 10 15
+ 0.237131 1 2 tcp 1040 ------- 0 0.0 2.0 10 15
r 0.237389 2 1 ack 40 ------- 0 2.0 0.0 5 16
+ 0.237389 1 0 ack 40 ------- 0 2.0 0.0 5 16
- 0.237389 1 0 ack 40 ------- 0 2.0 0.0 5 16
- 0.2376 1 2 tcp 1040 ------- 0 0.0 2.0 7 11
r 0.238429 1 0 ack 40 ------- 0 2.0 0.0 5 16
+ 0.238429 0 1 tcp 1040 ------- 0 0.0 2.0 11 17
- 0.238429 0 1 tcp 1040 ------- 0 0.0 2.0 11 17
+ 0.238429 0 1 tcp 1040 ------- 0 0.0 2.0 12 18
- 0.239469 0 1 tcp 1040 ------- 0 0.0 2.0 12 18
r 0.2396 1 2 tcp 1040 ------- 0 0.0 2.0 6 9
+ 0.2396 2 1 ack 40 ------- 0 2.0 0.0 6 19
- 0.2396 2 1 ack 40 ------- 0 2.0 0.0 6 19
r 0.240469 0 1 tcp 1040 ------- 0 0.0 2.0 11 17
+ 0.240469 1 2 tcp 1040 ------- 0 0.0 2.0 11 17
r 0.241509 0 1 tcp 1040 ------- 0 0.0 2.0 12 18
+ 0.241509 1 2 tcp 1040 ------- 0 0.0 2.0 12 18
r 0.241768 2 1 ack 40 ------- 0 2.0 0.0 6 19
+ 0.241768 1 0 ack 40 ------- 0 2.0 0.0 6 19
- 0.241768 1 0 ack 40 ------- 0 2.0 0.0 6 19
- 0.241979 1 2 tcp 1040 ------- 0 0.0 2.0 8 12
r 0.242808 1 0 ack 40 ------- 0 2.0 0.0 6 19
+ 0.242808 0 1 tcp 1040 ------- 0 0.0 2.0 13 20
- 0.242808 0 1 tcp 1040 ------- 0 0.0 2.0 13 20
+ 0.242808 0 1 tcp 1040 ------- 0 0.0 2.0 14 21
- 0.243848 0 1 tcp 1040 ------- 0 0.0 2.0 14 21
r 0.243979 1 2 tcp 1040 ------- 0 0.0 2.0 7 11
+ 0.243979 2 1 ack 40 ------- 0 2.0 0.0 7 22
- 0.243979 2 1 ack 40 ------- 0 2.0 0.0 7 22
r 0.244848 0 1 tcp 1040 ------- 0 0.0 2.0 13 20
+ 0.244848 1 2 tcp 1040 ------- 0 0.0 2.0 13 20
r 0.245888 0 1 tcp 1040 ------- 0 0.0 2.0 14 21
+ 0.245888 1 2 tcp 1040 ------- 0 0.0 2.0 14 21
r 0.246147 2 1 ack 40 ------- 0 2.0 0.0 7 22
+ 0.246147 1 0 ack 40 ------- 0 2.0 0.0 7 22
- 0.246147 1 0 ack 40 ------- 0 2.0 0.0 7 22
- 0.246358 1 2 tcp 1040 ------- 0 0.0 2.0 9 14
r 0.247187 1 0 ack 40 ------- 0 2.0 0.0 7 22
+ 0.247187 0 1 tcp 1040 ------- 0 0.0 2.0 15 23
- 0.247187 0 1 tcp 1040 ------- 0 0.0 2.0 15 23
+ 0.247187 0 1 tcp 1040 ------- 0 0.0 2.0 16 24
- 0.248227 0 1 tcp 1040 ------- 0 0.0 2.0 16 24
r 0.248358 1 2 tcp 1040 ------- 0 0.0 2.0 8 12
+ 0.248358 2 1 ack 40 ------- 0 2.0 0.0 8 25
- 0.248358 2 1 ack 40 ------- 0 2.0 0.0 8 25
r 0.249227 0 1 tcp 1040 ------- 0 0.0 2.0 15 23
+ 0.249227 1 2 tcp 1040 ------- 0 0.0 2.0 15 23
r 0.250267 0 1 tcp 1040 ------- 0 0.0 2.0 16 24
+ 0.250267 1 2 tcp 1040 ------- 0 0.0 2.0 16 24
r 0.250526 2 1 ack 40 ------- 0 2.0 0.0 8 25
+ 0.250526 1 0 ack 40 ------- 0 2.0 0.0 8 25
- 0.250526 1 0 ack 40 ------- 0 2.0 0.0 8 25
- 0.250737 1 2 tcp 1040 ------- 0 0.0 2.0 10 15
r 0.251566 1 0 ack 40 ------- 0 2.0 0.0 8 25
+ 0.251566 0 1 tcp 1040 ------- 0 0.0 2.0 17 26
- 0.251566 0 1 tcp 1040 ------- 0 0.0 2.0 17 26
+ 0.251566 0 1 tcp 1040 ------- 0 0.0 2.0 18 27
- 0.252606 0 1 tcp 1040 ------- 0 0.0 2.0 18 27
r 0.252737 1 2 tcp 1040 ------- 0 0.0 2.0 9 14
+ 0.252737 2 1 ack 40 ------- 0 2.0 0.0 9 28
- 0.252737 2 1 ack 40 ------- 0 2.0 0.0 9 28
r 0.253606 0 1 tcp 1040 ------- 0 0.0 2.0 17 26
+ 0.253606 1 2 tcp 1040 ------- 0 0.0 2.0 17 26
r 0.254646 0 1 tcp 1040 ------- 0 0.0 2.0 18 27
+ 0.254646 1 2 tcp 1040 ------- 0 0.0 2.0 18 27
r 0.254905 2 1 ack 40 ------- 0 2.0 0.0 9 28
+ 0.254905 1 0 ack 40 ------- 0 2.0 0.0 9 28
- 0.254905 1 0 ack 40 ------- 0 2.0 0.0 9 28
- 0.255116 1 2 tcp 1040 ------- 0 0.0 2.0 11 17
r 0.255945 1 0 ack 40 ------- 0 2.0 0.0 9 28
+ 0.255945 0 1 tcp 1040 ------- 0 0.0 2.0 19 29
- 0.255945 0 1 tcp 1040 ------- 0 0.0 2.0 19 29
+ 0.255945 0 1 tcp 1040 ------- 0 0.0 2.0 20 30
- 0.256985 0 1 tcp 1040 ------- 0 0.0 2.0 20 30
r 0.257116 1 2 tcp 1040 ------- 0 0.0 2.0 10 15
+ 0.257116 2 1 ack 40 ------- 0 2.0 0.0 10 31
- 0.257116 2 1 ack 40 ------- 0 2.0 0.0 10 31
r 0.257985 0 1 tcp 1040 ------- 0 0.0 2.0 19 29
+ 0.257985 1 2 tcp 1040 ------- 0 0.0 2.0 19 29
r 0.259025 0 1 tcp 1040 ------- 0 0.0 2.0 20 30
+ 0.259025 1 2 tcp 1040 ------- 0 0.0 2.0 20 30
r 0.259284 2 1 ack 40 ------- 0 2.0 0.0 10 31
+ 0.259284 1 0 ack 40 ------- 0 2.0 0.0 10 31
- 0.259284 1 0 ack 40 ------- 0 2.0 0.0 10 31
- 0.259495 1 2 tcp 1040 ------- 0 0.0 2.0 12 18
r 0.260324 1 0 ack 40 ------- 0 2.0 0.0 10 31
+ 0.260324 0 1 tcp 1040 ------- 0 0.0 2.0 21 32
- 0.260324 0 1 tcp 1040 ------- 0 0.0 2.0 21 32
+ 0.260324 0 1 tcp 1040 ------- 0 0.0 2.0 22 33
- 0.261364 0 1 tcp 1040 ------- 0 0.0 2.0 22 33
r 0.261495 1 2 tcp 1040 ------- 0 0.0 2.0 11 17
+ 0.261495 2 1 ack 40 ------- 0 2.0 0.0 11 34
- 0.261495 2 1 ack 40 ------- 0 2.0 0.0 11 34
r 0.262364 0 1 tcp 1040 ------- 0 0.0 2.0 21 32
+ 0.262364 1 2 tcp 1040 ------- 0 0.0 2.0 21 32
r 0.263404 0 1 tcp 1040 ------- 0 0.0 2.0 22 33
+ 0.263404 1 2 tcp 1040 ------- 0 0.0 2.0 22 33
r 0.263663 2 1 ack 40 ------- 0 2.0 0.0 11 34
+ 0.263663 1 0 ack 40 ------- 0 2.0 0.0 11 34
- 0.263663 1 0 ack 40 ------- 0 2.0 0.0 11 34
- 0.263874 1 2 tcp 1040 ------- 0 0.0 2.0 13 20
r 0.264703 1 0 ack 40 ------- 0 2.0 0.0 11 34
+ 0.264703 0 1 tcp 1040 ------- 0 0.0 2.0 23 35
- 0.264703 0 1 tcp 1040 ------- 0 0.0 2.0 23 35
+ 0.264703 0 1 tcp 1040 ------- 0 0.0 2.0 24 36
- 0.265743 0 1 tcp 1040 ------- 0 0.0 2.0 24 36
r 0.265874 1 2 tcp 1040 ------- 0 0.0 2.0 12 18
+ 0.265874 2 1 ack 40 ------- 0 2.0 0.0 12 37
- 0.265874 2 1 ack 40 ------- 0 2.0 0.0 12 37
r 0.266743 0 1 tcp 1040 ------- 0 0.0 2.0 23 35
+ 0.266743 1 2 tcp 1040 ------- 0 0.0 2.0 23 35
r 0.267783 0 1 tcp 1040 ------- 0 0.0 2.0 24 36
+ 0.267783 1 2 tcp 1040 ------- 0 0.0 2.0 24 36
r 0.268042 2 1 ack 40 ------- 0 2.0 0.0 12 37
+ 0.268042 1 0 ack 40 ------- 0 2.0 0.0 12 37
- 0.268042 1 0 ack 40 ------- 0 2.0 0.0 12 37
- 0.268253 1 2 tcp 1040 ------- 0 0.0 2.0 14 21
r 0.269082 1 0 ack 40 ------- 0 2.0 0.0 12 37
+ 0.269082 0 1 tcp 1040 ------- 0 0.0 2.0 25 38
- 0.269082 0 1 tcp 1040 ------- 0 0.0 2.0 25 38
+ 0.269082 0 1 tcp 1040 ------- 0 0.0 2.0 26 39
- 0.270122 0 1 tcp 1040 ------- 0 0.0 2.0 26 39
r 0.270253 1 2 tcp 1040 ------- 0 0.0 2.0 13 20
+ 0.270253 2 1 ack 40 ------- 0 2.0 0.0 13 40
- 0.270253 2 1 ack 40 ------- 0 2.0 0.0 13 40
r 0.271122 0 1 tcp 1040 ------- 0 0.0 2.0 25 38
+ 0.271122 1 2 tcp 1040 ------- 0 0.0 2.0 25 38
r 0.272162 0 1 tcp 1040 ------- 0 0.0 2.0 26 39
+ 0.272162 1 2 tcp 1040 ------- 0 0.0 2.0 26 39
r 0.272421 2 1 ack 40 ------- 0 2.0 0.0 13 40
+ 0.272421 1 0 ack 40 ------- 0 2.0 0.0 13 40
- 0.272421 1 0 ack 40 ------- 0 2.0 0.0 13 40
- 0.272632 1 2 tcp 1040 ------- 0 0.0 2.0 15 23
r 0.273461 1 0 ack 40 ------- 0 2.0 0.0 13 40
+ 0.273461 0 1 tcp 1040 ------- 0 0.0 2.0 27 41
- 0.273461 0 1 tcp 1040 ------- 0 0.0 2.0 27 41
+ 0.273461 0 1 tcp 1040 ------- 0 0.0 2.0 28 42
- 0.274501 0 1 tcp 1040 ------- 0 0.0 2.0 28 42
r 0.274632 1 2 tcp 1040 ------- 0 0.0 2.0 14 21
+ 0.274632 2 1 ack 40 ------- 0 2.0 0.0 14 43
- 0.274632 2 1 ack 40 ------- 0 2.0 0.0 14 43
r 0.275501 0 1 tcp 1040 ------- 0 0.0 2.0 27 41
+ 0.275501 1 2 tcp 1040 ------- 0 0.0 2.0 27 41
r 0.276541 0 1 tcp 1040 ------- 0 0.0 2.0 28 42
+ 0.276541 1 2 tcp 1040 ------- 0 0.0 2.0 28 42
r 0.2768 2 1 ack 40 ------- 0 2.0 0.0 14 43
+ 0.2768 1 0 ack 40 ------- 0 2.0 0.0 14 43
- 0.2768 1 0 ack 40 ------- 0 2.0 0.0 14 43
- 0.277011 1 2 tcp 1040 ------- 0 0.0 2.0 16 24
r 0.27784 1 0 ack 40 ------- 0 2.0 0.0 14 43
+ 0.27784 0 1 tcp 1040 ------- 0 0.0 2.0 29 44
- 0.27784 0 1 tcp 1040 ------- 0 0.0 2.0 29 44
+ 0.27784 0 1 tcp 1040 ------- 0 0.0 2.0 30 45
- 0.27888 0 1 tcp 1040 ------- 0 0.0 2.0 30 45
r 0.279011 1 2 tcp 1040 ------- 0 0.0 2.0 15 23
+ 0.279011 2 1 ack 40 ------- 0 2.0 0.0 15 46
- 0.279011 2 1 ack 40 ------- 0 2.0 0.0 15 46
r 0.27988 0 1 tcp 1040 ------- 0 0.0 2.0 29 44
+ 0.27988 1 2 tcp 1040 ------- 0 0.0 2.0 29 44
r 0.28092 0 1 tcp 1040 ------- 0 0.0 2.0 30 45
+ 0.28092 1 2 tcp 1040 ------- 0 0.0 2.0 30 45
r 0.281179 2 1 ack 40 ------- 0 2.0 0.0 15 46
+ 0.281179 1 0 ack 40 ------- 0 2.0 0.0 15 46
- 0.281179 1 0 ack 40 ------- 0 2.0 0.0 15 46
- 0.281389 1 2 tcp 1040 ------- 0 0.0 2.0 17 26
r 0.282219 1 0 ack 40 ------- 0 2.0 0.0 15 46
+ 0.282219 0 1 tcp 1040 ------- 0 0.0 2.0 31 47
- 0.282219 0 1 tcp 1040 ------- 0 0.0 2.0 31 47
+ 0.282219 0 1 tcp 1040 ------- 0 0.0 2.0 32 48
- 0.283259 0 1 tcp 1040 ------- 0 0.0 2.0 32 48
r 0.283389 1 2 tcp 1040 ------- 0 0.0 2.0 16 24
+ 0.283389 2 1 ack 40 ------- 0 2.0 0.0 16 49
- 0.283389 2 1 ack 40 ------- 0 2.0 0.0 16 49
r 0.284259 0 1 tcp 1040 ------- 0 0.0 2.0 31 47
+ 0.284259 1 2 tcp 1040 ------- 0 0.0 2.0 31 47
r 0.285299 0 1 tcp 1040 ------- 0 0.0 2.0 32 48
+ 0.285299 1 2 tcp 1040 ------- 0 0.0 2.0 32 48
d 0.285299 1 2 tcp 1040 ------- 0 0.0 2.0 32 48
r 0.285558 2 1 ack 40 ------- 0 2.0 0.0 16 49
+ 0.285558 1 0 ack 40 ------- 0 2.0 0.0 16 49
- 0.285558 1 0 ack 40 ------- 0 2.0 0.0 16 49
- 0.285768 1 2 tcp 1040 ------- 0 0.0 2.0 18 27
r 0.286598 1 0 ack 40 ------- 0 2.0 0.0 16 49
+ 0.286598 0 1 tcp 1040 ------- 0 0.0 2.0 33 50
- 0.286598 0 1 tcp 1040 ------- 0 0.0 2.0 33 50
+ 0.286598 0 1 tcp 1040 ------- 0 0.0 2.0 34 51
- 0.287638 0 1 tcp 1040 ------- 0 0.0 2.0 34 51
r 0.287768 1 2 tcp 1040 ------- 0 0.0 2.0 17 26
+ 0.287768 2 1 ack 40 ------- 0 2.0 0.0 17 52
- 0.287768 2 1 ack 40 ------- 0 2.0 0.0 17 52
r 0.288638 0 1 tcp 1040 ------- 0 0.0 2.0 33 50
+ 0.288638 1 2 tcp 1040 ------- 0 0.0 2.0 33 50
r 0.289678 0 1 tcp 1040 ------- 0 0.0 2.0 34 51
+ 0.289678 1 2 tcp 1040 ------- 0 0.0 2.0 34 51
d 0.289678 1 2 tcp 1040 ------- 0 0.0 2.0 34 51
r 0.289937 2 1 ack 40 ------- 0 2.0 0.0 17 52
+ 0.289937 1 0 ack 40 ------- 0 2.0 0.0 17 52
- 0.289937 1 0 ack 40 ------- 0 2.0 0.0 17 52
- 0.290147 1 2 tcp 1040 ------- 0 0.0 2.0 19 29
r 0.290977 1 0 ack 40 ------- 0 2.0 0.0 17 52
+ 0.290977 0 1 tcp 1040 ------- 0 0.0 2.0 35 53
- 0.290977 0 1 tcp 1040 ------- 0 0.0 2.0 35 53
+ 0.290977 0 1 tcp 1040 ------- 0 0.0 2.0 36 54
- 0.292017 0 1 tcp 1040 ------- 0 0.0 2.0 36 54
r 0.292147 1 2 tcp 1040 ------- 0 0.0 2.0 18 27
+ 0.292147 2 1 ack 40 ------- 0 2.0 0.0 18 55
- 0.292147 2 1 ack 40 ------- 0 2.0 0.0 18 55
r 0.293017 0 1 tcp 1040 ------- 0 0.0 2.0 35 53
+ 0.293017 1 2 tcp 1040 ------- 0 0.0 2.0 35 53
r 0.294057 0 1 tcp 1040 ------- 0 0.0 2.0 36 54
+ 0.294057 1 2 tcp 1040 ------- 0 0.0 2.0 36 54
d 0.294057 1 2 tcp 1040 ------- 0 0.0 2.0 36 54
r 0.294316 2 1 ack 40 ------- 0 2.0 0.0 18 55
+ 0.294316 1 0 ack 40 ------- 0 2.0 0.0 18 55
- 0.294316 1 0 ack 40 ------- 0 2.0 0.0 18 55
- 0.294526 1 2 tcp 1040 ------- 0 0.0 2.0 20 30
r 0.295356 1 0 ack 40 ------- 0 2.0 0.0 18 55
+ 0.295356 0 1 tcp 1040 ------- 0 0.0 2.0 37 56
- 0.295356 0 1 tcp 1040 ------- 0 0.0 2.0 37 56
+ 0.295356 0 1 tcp 1040 ------- 0 0.0 2.0 38 57
- 0.296396 0 1 tcp 1040 ------- 0 0.0 2.0 38 57
r 0.296526 1 2 tcp 1040 ------- 0 0.0 2.0 19 29
+ 0.296526 2 1 ack 40 ------- 0 2.0 0.0 19 58
- 0.296526 2 1 ack 40 ------- 0 2.0 0.0 19 58
r 0.297396 0 1 tcp 1040 ------- 0 0.0 2.0 37 56
+ 0.297396 1 2 tcp 1040 ------- 0 0.0 2.0 37 56
r 0.298436 0 1 tcp 1040 ------- 0 0.0 2.0 38 57
+ 0.298436 1 2 tcp 1040 ------- 0 0.0 2.0 38 57
d 0.298436 1 2 tcp 1040 ------- 0 0.0 2.0 38 57
r 0.298695 2 1 ack 40 ------- 0 2.0 0.0 19 58
+ 0.298695 1 0 ack 40 ------- 0 2.0 0.0 19 58
- 0.298695 1 0 ack 40 ------- 0 2.0 0.0 19 58
- 0.298905 1 2 tcp 1040 ------- 0 0.0 2.0 21 32
r 0.299735 1 0 ack 40 ------- 0 2.0 0.0 19 58
+ 0.299735 0 1 tcp 1040 ------- 0 0.0 2.0 39 59
- 0.299735 0 1 tcp 1040 ------- 0 0.0 2.0 39 59
r 0.300905 1 2 tcp 1040 ------- 0 0.0 2.0 20 30
+ 0.300905 2 1 ack 40 ------- 0 2.0 0.0 20 60
- 0.300905 2 1 ack 40 ------- 0 2.0 0.0 20 60
r 0.301775 0 1 tcp 1040 ------- 0 0.0 2.0 39 59
+ 0.301775 1 2 tcp 1040 ------- 0 0.0 2.0 39 59
r 0.303074 2 1 ack 40 ------- 0 2.0 0.0 20 60
+ 0.303074 1 0 ack 40 ------- 0 2.0 0.0 20 60
- 0.303074 1 0 ack 40 ------- 0 2.0 0.0 20 60
- 0.303284 1 2 tcp 1040 ------- 0 0.0 2.0 22 33
r 0.304114 1 0 ack 40 ------- 0 2.0 0.0 20 60
+ 0.304114 0 1 tcp 1040 ------- 0 0.0 2.0 40 61
- 0.304114 0 1 tcp 1040 ------- 0 0.0 2.0 40 61
r 0.305284 1 2 tcp 1040 ------- 0 0.0 2.0 21 32
+ 0.305284 2 1 ack 40 ------- 0 2.0 0.0 21 62
- 0.305284 2 1 ack 40 ------- 0 2.0 0.0 21 62
r 0.306154 0 1 tcp 1040 ------- 0 0.0 2.0 40 61
+ 0.306154 1 2 tcp 1040 ------- 0 0.0 2.0 40 61
r 0.307453 2 1 ack 40 ------- 0 2.0 0.0 21 62
+ 0.307453 1 0 ack 40 ------- 0 2.0 0.0 21 62
- 0.307453 1 0 ack 40 ------- 0 2.0 0.0 21 62
- 0.307663 1 2 tcp 1040 ------- 0 0.0 2.0 23 35
r 0.308493 1 0 ack 40 ------- 0 2.0 0.0 21 62
+ 0.308493 0 1 tcp 1040 ------- 0 0.0 2.0 41 63
- 0.308493 0 1 tcp 1040 ------- 0 0.0 2.0 41 63
r 0.309663 1 2 tcp 1040 ------- 0 0.0 2.0 22 33
+ 0.309663 2 1 ack 40 ------- 0 2.0 0.0 22 64
- 0.309663 2 1 ack 40 ------- 0 2.0 0.0 22 64
r 0.310533 0 1 tcp 1040 ------- 0 0.0 2.0 41 63
+ 0.310533 1 2 tcp 1040 ------- 0 0.0 2.0 41 63
r 0.311832 2 1 ack 40 ------- 0 2.0 0.0 22 64
+ 0.311832 1 0 ack 40 ------- 0 2.0 0.0 22 64
- 0.311832 1 0 ack 40 ------- 0 2.0 0.0 22 64
- 0.312042 1 2 tcp 1040 ------- 0 0.0 2.0 24 36
r 0.312872 1 0 ack 40 ------- 0 2.0 0.0 22 64
+ 0.312872 0 1 tcp 1040 ------- 0 0.0 2.0 42 65
- 0.312872 0 1 tcp 1040 ------- 0 0.0 2.0 42 65
r 0.314042 1 2 tcp 1040 ------- 0 0.0 2.0 23 35
+ 0.314042 2 1 ack 40 ------- 0 2.0 0.0 23 66
- 0.314042 2 1 ack 40 ------- 0 2.0 0.0 23 66
r 0.314912 0 1 tcp 1040 ------- 0 0.0 2.0 42 65
+ 0.314912 1 2 tcp 1040 ------- 0 0.0 2.0 42 65
r 0.316211 2 1 ack 40 ------- 0 2.0 0.0 23 66
+ 0.316211 1 0 ack 40 ------- 0 2.0 0.0 23 66
- 0.316211 1 0 ack 40 ------- 0 2.0 0.0 23 66
- 0.316421 1 2 tcp 1040 ------- 0 0.0 2.0 25 38
r 0.317251 1 0 ack 40 ------- 0 2.0 0.0 23 66
+ 0.317251 0 1 tcp 1040 ------- 0 0.0 2.0 43 67
- 0.317251 0 1 tcp 1040 ------- 0 0.0 2.0 43 67
r 0.318421 1 2 tcp 1040 ------- 0 0.0 2.0 24 36
+ 0.318421 2 1 ack 40 ------- 0 2.0 0.0 24 68
- 0.318421 2 1 ack 40 ------- 0 2.0 0.0 24 68
r 0.319291 0 1 tcp 1040 ------- 0 0.0 2.0 43 67
+ 0.319291 1 2 tcp 1040 ------- 0 0.0 2.0 43 67
r 0.320589 2 1 ack 40 ------- 0 2.0 0.0 24 68
+ 0.320589 1 0 ack 40 ------- 0 2.0 0.0 24 68
- 0.320589 1 0 ack 40 ------- 0 2.0 0.0 24 68
- 0.3208 1 2 tcp 1040 ------- 0 0.0 2.0 26 39
r 0.321629 1 0 ack 40 ------- 0 2.0 0.0 24 68
+ 0.321629 0 1 tcp 1040 ------- 0 0.0 2.0 44 69
- 0.321629 0 1 tcp 1040 ------- 0 0.0 2.0 44 69
r 0.3228 1 2 tcp 1040 ------- 0 0.0 2.0 25 38
+ 0.3228 2 1 ack 40 ------- 0 2.0 0.0 25 70
- 0.3228 2 1 ack 40 ------- 0 2.0 0.0 25 70
r 0.323669 0 1 tcp 1040 ------- 0 0.0 2.0 44 69
+ 0.323669 1 2 tcp 1040 ------- 0 0.0 2.0 44 69
r 0.324968 2 1 ack 40 ------- 0 2.0 0.0 25 70
+ 0.324968 1 0 ack 40 ------- 0 2.0 0.0 25 70
- 0.324968 1 0 ack 40 ------- 0 2.0 0.0 25 70
- 0.325179 1 2 tcp 1040 ------- 0 0.0 2.0 27 41
r 0.326008 1 0 ack 40 ------- 0 2.0 0.0 25 70
+ 0.326008 0 1 tcp 1040 ------- 0 0.0 2.0 45 71
- 0.326008 0 1 tcp 1040 ------- 0 0.0 2.0 45 71
r 0.327179 1 2 tcp 1040 ------- 0 0.0 2.0 26 39
+ 0.327179 2 1 ack 40 ------- 0 2.0 0.0 26 72
- 0.327179 2 1 ack 40 ------- 0 2.0 0.0 26 72
r 0.328048 0 1 tcp 1040 ------- 0 0.0 2.0 45 71
+ 0.328048 1 2 tcp 1040 ------- 0 0.0 2.0 45 71
r 0.329347 2 1 ack 40 ------- 0 2.0 0.0 26 72
+ 0.329347 1 0 ack 40 ------- 0 2.0 0.0 26 72
- 0.329347 1 0 ack 40 ------- 0 2.0 0.0 26 72
- 0.329558 1 2 tcp 1040 ------- 0 0.0 2.0 28 42
r 0.330387 1 0 ack 40 ------- 0 2.0 0.0 26 72
+ 0.330387 0 1 tcp 1040 ------- 0 0.0 2.0 46 73
- 0.330387 0 1 tcp 1040 ------- 0 0.0 2.0 46 73
r 0.331558 1 2 tcp 1040 ------- 0 0.0 2.0 27 41
+ 0.331558 2 1 ack 40 ------- 0 2.0 0.0 27 74
- 0.331558 2 1 ack 40 ------- 0 2.0 0.0 27 74
r 0.332427 0 1 tcp 1040 ------- 0 0.0 2.0 46 73
+ 0.332427 1 2 tcp 1040 ------- 0 0.0 2.0 46 73
r 0.333726 2 1 ack 40 ------- 0 2.0 0.0 27 74
+ 0.333726 1 0 ack 40 ------- 0 2.0 0.0 27 74
- 0.333726 1 0 ack 40 ------- 0 2.0 0.0 27 74
- 0.333937 1 2 tcp 1040 ------- 0 0.0 2.0 29 44
r 0.334766 1 0 ack 40 ------- 0 2.0 0.0 27 74
+ 0.334766 0 1 tcp 1040 ------- 0 0.0 2.0 47 75
- 0.334766 0 1 tcp 1040 ------- 0 0.0 2.0 47 75
r 0.335937 1 2 tcp 1040 ------- 0 0.0 2.0 28 42
+ 0.335937 2 1 ack 40 ------- 0 2.0 0.0 28 76
- 0.335937 2 1 ack 40 ------- 0 2.0 0.0 28 76
r 0.336806 0 1 tcp 1040 ------- 0 0.0 2.0 47 75
+ 0.336806 1 2 tcp 1040 ------- 0 0.0 2.0 47 75
r 0.338105 2 1 ack 40 ------- 0 2.0 0.0 28 76
+ 0.338105 1 0 ack 40 ------- 0 2.0 0.0 28 76
- 0.338105 1 0 ack 40 ------- 0 2.0 0.0 28 76
- 0.338316 1 2 tcp 1040 ------- 0 0.0 2.0 30 45
r 0.339145 1 0 ack 40 ------- 0 2.0 0.0 28 76
+ 0.339145 0 1 tcp 1040 ------- 0 0.0 2.0 48 77
- 0.339145 0 1 tcp 1040 ------- 0 0.0 2.0 48 77
r 0.340316 1 2 tcp 1040 ------- 0 0.0 2.0 29 44
+ 0.340316 2 1 ack 40 ------- 0 2.0 0.0 29 78
- 0.340316 2 1 ack 40 ------- 0 2.0 0.0 29 78
r 0.341185 0 1 tcp 1040 ------- 0 0.0 2.0 48 77
+ 0.341185 1 2 tcp 1040 ------- 0 0.0 2.0 48 77
r 0.342484 2 1 ack 40 ------- 0 2.0 0.0 29 78
+ 0.342484 1 0 ack 40 ------- 0 2.0 0.0 29 78
- 0.342484 1 0 ack 40 ------- 0 2.0 0.0 29 78
- 0.342695 1 2 tcp 1040 ------- 0 0.0 2.0 31 47
r 0.343524 1 0 ack 40 ------- 0 2.0 0.0 29 78
+ 0.343524 0 1 tcp 1040 ------- 0 0.0 2.0 49 79
- 0.343524 0 1 tcp 1040 ------- 0 0.0 2.0 49 79
r 0.344695 1 2 tcp 1040 ------- 0 0.0 2.0 30 45
+ 0.344695 2 1 ack 40 ------- 0 2.0 0.0 30 80
- 0.344695 2 1 ack 40 ------- 0 2.0 0.0 30 80
r 0.345564 0 1 tcp 1040 ------- 0 0.0 2.0 49 79
+ 0.345564 1 2 tcp 1040 ------- 0 0.0 2.0 49 79
r 0.346863 2 1 ack 40 ------- 0 2.0 0.0 30 80
+ 0.346863 1 0 ack 40 ------- 0 2.0 0.0 30 80
- 0.346863 1 0 ack 40 ------- 0 2.0 0.0 30 80
- 0.347074 1 2 tcp 1040 ------- 0 0.0 2.0 33 50
r 0.347903 1 0 ack 40 ------- 0 2.0 0.0 30 80
+ 0.347903 0 1 tcp 1040 ------- 0 0.0 2.0 50 81
- 0.347903 0 1 tcp 1040 ------- 0 0.0 2.0 50 81
r 0.349074 1 2 tcp 1040 ------- 0 0.0 2.0 31 47
+ 0.349074 2 1 ack 40 ------- 0 2.0 0.0 31 82
- 0.349074 2 1 ack 40 ------- 0 2.0 0.0 31 82
r 0.349943 0 1 tcp 1040 ------- 0 0.0 2.0 50 81
+ 0.349943 1 2 tcp 1040 ------- 0 0.0 2.0 50 81
r 0.351242 2 1 ack 40 ------- 0 2.0 0.0 31 82
+ 0.351242 1 0 ack 40 ------- 0 2.0 0.0 31 82
- 0.351242 1 0 ack 40 ------- 0 2.0 0.0 31 82
- 0.351453 1 2 tcp 1040 ------- 0 0.0 2.0 35 53
r 0.352282 1 0 ack 40 ------- 0 2.0 0.0 31 82
+ 0.352282 0 1 tcp 1040 ------- 0 0.0 2.0 51 83
- 0.352282 0 1 tcp 1040 ------- 0 0.0 2.0 51 83
r 0.353453 1 2 tcp 1040 ------- 0 0.0 2.0 33 50
+ 0.353453 2 1 ack 40 ------- 0 2.0 0.0 31 84
- 0.353453 2 1 ack 40 ------- 0 2.0 0.0 31 84
r 0.354322 0 1 tcp 1040 ------- 0 0.0 2.0 51 83
+ 0.354322 1 2 tcp 1040 ------- 0 0.0 2.0 51 83
r 0.355621 2 1 ack 40 ------- 0 2.0 0.0 31 84
+ 0.355621 1 0 ack 40 ------- 0 2.0 0.0 31 84
- 0.355621 1 0 ack 40 ------- 0 2.0 0.0 31 84
- 0.355832 1 2 tcp 1040 ------- 0 0.0 2.0 37 56
r 0.356661 1 0 ack 40 ------- 0 2.0 0.0 31 84
r 0.357832 1 2 tcp 1040 ------- 0 0.0 2.0 35 53
+ 0.357832 2 1 ack 40 ------- 0 2.0 0.0 31 85
- 0.357832 2 1 ack 40 ------- 0 2.0 0.0 31 85
r 0.36 2 1 ack 40 ------- 0 2.0 0.0 31 85
+ 0.36 1 0 ack 40 ------- 0 2.0 0.0 31 85
- 0.36 1 0 ack 40 ------- 0 2.0 0.0 31 85
- 0.360211 1 2 tcp 1040 ------- 0 0.0 2.0 39 59
r 0.36104 1 0 ack 40 ------- 0 2.0 0.0 31 85
r 0.362211 1 2 tcp 1040 ------- 0 0.0 2.0 37 56
+ 0.362211 2 1 ack 40 ------- 0 2.0 0.0 31 86
- 0.362211 2 1 ack 40 ------- 0 2.0 0.0 31 86
r 0.364379 2 1 ack 40 ------- 0 2.0 0.0 31 86
+ 0.364379 1 0 ack 40 ------- 0 2.0 0.0 31 86
- 0.364379 1 0 ack 40 ------- 0 2.0 0.0 31 86
- 0.364589 1 2 tcp 1040 ------- 0 0.0 2.0 40 61
r 0.365419 1 0 ack 40 ------- 0 2.0 0.0 31 86
+ 0.365419 0 1 tcp 1040 ---A--- 0 0.0 2.0 32 87
- 0.365419 0 1 tcp 1040 ---A--- 0 0.0 2.0 32 87
r 0.366589 1 2 tcp 1040 ------- 0 0.0 2.0 39 59
+ 0.366589 2 1 ack 40 ------- 0 2.0 0.0 31 88
- 0.366589 2 1 ack 40 ------- 0 2.0 0.0 31 88
r 0.367459 0 1 tcp 1040 ---A--- 0 0.0 2.0 32 87
+ 0.367459 1 2 tcp 1040 ---A--- 0 0.0 2.0 32 87
r 0.368758 2 1 ack 40 ------- 0 2.0 0.0 31 88
+ 0.368758 1 0 ack 40 ------- 0 2.0 0.0 31 88
- 0.368758 1 0 ack 40 ------- 0 2.0 0.0 31 88
- 0.368968 1 2 tcp 1040 ------- 0 0.0 2.0 41 63
r 0.369798 1 0 ack 40 ------- 0 2.0 0.0 31 88
r 0.370968 1 2 tcp 1040 ------- 0 0.0 2.0 40 61
+ 0.370968 2 1 ack 40 ------- 0 2.0 0.0 31 89
- 0.370968 2 1 ack 40 ------- 0 2.0 0.0 31 89
r 0.373137 2 1 ack 40 ------- 0 2.0 0.0 31 89
+ 0.373137 1 0 ack 40 ------- 0 2.0 0.0 31 89
- 0.373137 1 0 ack 40 ------- 0 2.0 0.0 31 89
- 0.373347 1 2 tcp 1040 ------- 0 0.0 2.0 42 65
r 0.374177 1 0 ack 40 ------- 0 2.0 0.0 31 89
r 0.375347 1 2 tcp 1040 ------- 0 0.0 2.0 41 63
+ 0.375347 2 1 ack 40 ------- 0 2.0 0.0 31 90
- 0.375347 2 1 ack 40 ------- 0 2.0 0.0 31 90
r 0.377516 2 1 ack 40 ------- 0 2.0 0.0 31 90
+ 0.377516 1 0 ack 40 ------- 0 2.0 0.0 31 90
- 0.377516 1 0 ack 40 ------- 0 2.0 0.0 31 90
- 0.377726 1 2 tcp 1040 ------- 0 0.0 2.0 43 67
r 0.378556 1 0 ack 40 ------- 0 2.0 0.0 31 90
r 0.379726 1 2 tcp 1040 ------- 0 0.0 2.0 42 65
+ 0.379726 2 1 ack 40 ------- 0 2.0 0.0 31 91
- 0.379726 2 1 ack 40 ------- 0 2.0 0.0 31 91
r 0.381895 2 1 ack 40 ------- 0 2.0 0.0 31 91
+ 0.381895 1 0 ack 40 ------- 0 2.0 0.0 31 91
- 0.381895 1 0 ack 40 ------- 0 2.0 0.0 31 91
- 0.382105 1 2 tcp 1040 ------- 0 0.0 2.0 44 69
r 0.382935 1 0 ack 40 ------- 0 2.0 0.0 31 91
r 0.384105 1 2 tcp 1040 ------- 0 0.0 2.0 43 67
+ 0.384105 2 1 ack 40 ------- 0 2.0 0.0 31 92
- 0.384105 2 1 ack 40 ------- 0 2.0 0.0 31 92
r 0.386274 2 1 ack 40 ------- 0 2.0 0.0 31 92
+ 0.386274 1 0 ack 40 ------- 0 2.0 0.0 31 92
- 0.386274 1 0 ack 40 ------- 0 2.0 0.0 31 92
- 0.386484 1 2 tcp 1040 ------- 0 0.0 2.0 45 71
r 0.387314 1 0 ack 40 ------- 0 2.0 0.0 31 92
r 0.388484 1 2 tcp 1040 ------- 0 0.0 2.0 44 69
+ 0.388484 2 1 ack 40 ------- 0 2.0 0.0 31 93
- 0.388484 2 1 ack 40 ------- 0 2.0 0.0 31 93
r 0.390653 2 1 ack 40 ------- 0 2.0 0.0 31 93
+ 0.390653 1 0 ack 40 ------- 0 2.0 0.0 31 93
- 0.390653 1 0 ack 40 ------- 0 2.0 0.0 31 93
- 0.390863 1 2 tcp 1040 ------- 0 0.0 2.0 46 73
r 0.391693 1 0 ack 40 ------- 0 2.0 0.0 31 93
r 0.392863 1 2 tcp 1040 ------- 0 0.0 2.0 45 71
+ 0.392863 2 1 ack 40 ------- 0 2.0 0.0 31 94
- 0.392863 2 1 ack 40 ------- 0 2.0 0.0 31 94
r 0.395032 2 1 ack 40 ------- 0 2.0 0.0 31 94
+ 0.395032 1 0 ack 40 ------- 0 2.0 0.0 31 94
- 0.395032 1 0 ack 40 ------- 0 2.0 0.0 31 94
- 0.395242 1 2 tcp 1040 ------- 0 0.0 2.0 47 75
r 0.396072 1 0 ack 40 ------- 0 2.0 0.0 31 94
r 0.397242 1 2 tcp 1040 ------- 0 0.0 2.0 46 73
+ 0.397242 2 1 ack 40 ------- 0 2.0 0.0 31 95
- 0.397242 2 1 ack 40 ------- 0 2.0 0.0 31 95
r 0.399411 2 1 ack 40 ------- 0 2.0 0.0 31 95
+ 0.399411 1 0 ack 40 ------- 0 2.0 0.0 31 95
- 0.399411 1 0 ack 40 ------- 0 2.0 0.0 31 95
- 0.399621 1 2 tcp 1040 ------- 0 0.0 2.0 48 77
r 0.400451 1 0 ack 40 ------- 0 2.0 0.0 31 95
r 0.401621 1 2 tcp 1040 ------- 0 0.0 2.0 47 75
+ 0.401621 2 1 ack 40 ------- 0 2.0 0.0 31 96
- 0.401621 2 1 ack 40 ------- 0 2.0 0.0 31 96
r 0.403789 2 1 ack 40 ------- 0 2.0 0.0 31 96
+ 0.403789 1 0 ack 40 ------- 0 2.0 0.0 31 96
- 0.403789 1 0 ack 40 ------- 0 2.0 0.0 31 96
- 0.404 1 2 tcp 1040 ------- 0 0.0 2.0 49 79
r 0.404829 1 0 ack 40 ------- 0 2.0 0.0 31 96
r 0.406 1 2 tcp 1040 ------- 0 0.0 2.0 48 77
+ 0.406 2 1 ack 40 ------- 0 2.0 0.0 31 97
- 0.406 2 1 ack 40 ------- 0 2.0 0.0 31 97
r 0.408168 2 1 ack 40 ------- 0 2.0 0.0 31 97
+ 0.408168 1 0 ack 40 ------- 0 2.0 0.0 31 97
- 0.408168 1 0 ack 40 ------- 0 2.0 0.0 31 97
- 0.408379 1 2 tcp 1040 ------- 0 0.0 2.0 50 81
r 0.409208 1 0 ack 40 ------- 0 2.0 0.0 31 97
r 0.410379 1 2 tcp 1040 ------- 0 0.0 2.0 49 79
+ 0.410379 2 1 ack 40 ------- 0 2.0 0.0 31 98
- 0.410379 2 1 ack 40 ------- 0 2.0 0.0 31 98
r 0.412547 2 1 ack 40 ------- 0 2.0 0.0 31 98
+ 0.412547 1 0 ack 40 ------- 0 2.0 0.0 31 98
- 0.412547 1 0 ack 40 ------- 0 2.0 0.0 31 98
- 0.412758 1 2 tcp 1040 ------- 0 0.0 2.0 51 83
r 0.413587 1 0 ack 40 ------- 0 2.0 0.0 31 98
r 0.414758 1 2 tcp 1040 ------- 0 0.0 2.0 50 81
+ 0.414758 2 1 ack 40 ------- 0 2.0 0.0 31 99
- 0.414758 2 1 ack 40 ------- 0 2.0 0.0 31 99
r 0.416926 2 1 ack 40 ------- 0 2.0 0.0 31 99
+ 0.416926 1 0 ack 40 ------- 0 2.0 0.0 31 99
- 0.416926 1 0 ack 40 ------- 0 2.0 0.0 31 99
- 0.417137 1 2 tcp 1040 ---A--- 0 0.0 2.0 32 87
r 0.417966 1 0 ack 40 ------- 0 2.0 0.0 31 99
r 0.419137 1 2 tcp 1040 ------- 0 0.0 2.0 51 83
+ 0.419137 2 1 ack 40 ------- 0 2.0 0.0 31 100
- 0.419137 2 1 ack 40 ------- 0 2.0 0.0 31 100
r 0.421305 2 1 ack 40 ------- 0 2.0 0.0 31 100
+ 0.421305 1 0 ack 40 ------- 0 2.0 0.0 31 100
- 0.421305 1 0 ack 40 ------- 0 2.0 0.0 31 100
r 0.422345 1 0 ack 40 ------- 0 2.0 0.0 31 100
r 0.423516 1 2 tcp 1040 ---A--- 0 0.0 2.0 32 87
+ 0.423516 2 1 ack 40 ------- 0 2.0 0.0 33 101
- 0.423516 2 1 ack 40 ------- 0 2.0 0.0 33 101
r 0.425684 2 1 ack 40 ------- 0 2.0 0.0 33 101
+ 0.425684 1 0 ack 40 ------- 0 2.0 0.0 33 101
- 0.425684 1 0 ack 40 ------- 0 2.0 0.0 33 101
r 0.426724 1 0 ack 40 ------- 0 2.0 0.0 33 101
+ 0.426724 0 1 tcp 1040 ------- 0 0.0 2.0 34 102
- 0.426724 0 1 tcp 1040 ------- 0 0.0 2.0 34 102
+ 0.426724 0 1 tcp 1040 ------- 0 0.0 2.0 35 103
- 0.427764 0 1 tcp 1040 ------- 0 0.0 2.0 35 103
r 0.428764 0 1 tcp 1040 ------- 0 0.0 2.0 34 102
+ 0.428764 1 2 tcp 1040 ------- 0 0.0 2.0 34 102
- 0.428764 1 2 tcp 1040 ------- 0 0.0 2.0 34 102
r 0.429804 0 1 tcp 1040 ------- 0 0.0 2.0 35 103
+ 0.429804 1 2 tcp 1040 ------- 0 0.0 2.0 35 103
- 0.433143 1 2 tcp 1040 ------- 0 0.0 2.0 35 103
r 0.435143 1 2 tcp 1040 ------- 0 0.0 2.0 34 102
+ 0.435143 2 1 ack 40 ------- 0 2.0 0.0 35 104
- 0.435143 2 1 ack 40 ------- 0 2.0 0.0 35 104
r 0.437312 2 1 ack 40 ------- 0 2.0 0.0 35 104
+ 0.437312 1 0 ack 40 ------- 0 2.0 0.0 35 104
- 0.437312 1 0 ack 40 ------- 0 2.0 0.0 35 104
r 0.438352 1 0 ack 40 ------- 0 2.0 0.0 35 104
+ 0.438352 0 1 tcp 1040 ------- 0 0.0 2.0 36 105
- 0.438352 0 1 tcp 1040 ------- 0 0.0 2.0 36 105
+ 0.438352 0 1 tcp 1040 ------- 0 0.0 2.0 37 106
+ 0.438352 0 1 tcp 1040 ------- 0 0.0 2.0 38 107
- 0.439392 0 1 tcp 1040 ------- 0 0.0 2.0 37 106
r 0.439522 1 2 tcp 1040 ------- 0 0.0 2.0 35 103
+ 0.439522 2 1 ack 40 ------- 0 2.0 0.0 35 108
- 0.439522 2 1 ack 40 ------- 0 2.0 0.0 35 108
r 0.440392 0 1 tcp 1040 ------- 0 0.0 2.0 36 105
+ 0.440392 1 2 tcp 1040 ------- 0 0.0 2.0 36 105
- 0.440392 1 2 tcp 1040 ------- 0 0.0 2.0 36 105
- 0.440432 0 1 tcp 1040 ------- 0 0.0 2.0 38 107
r 0.441432 0 1 tcp 1040 ------- 0 0.0 2.0 37 106
+ 0.441432 1 2 tcp 1040 ------- 0 0.0 2.0 37 106
r 0.441691 2 1 ack 40 ------- 0 2.0 0.0 35 108
+ 0.441691 1 0 ack 40 ------- 0 2.0 0.0 35 108
- 0.441691 1 0 ack 40 ------- 0 2.0 0.0 35 108