h 0.1 1 5 tcp 40 ------- 1 1.0 3.0 0 0
+ 0.14 1 5 tcp 40 ------- 1 1.0 3.0 0 0
- 0.14 1 5 tcp 40 ------- 1 1.0 3.0 0 0
d 0.140004 4 5 tcp 40 ------- 1 1.0 3.0 0 0
d 0.140004 2 5 tcp 40 ------- 1 1.0 3.0 0 0
d 0.140004 0 5 tcp 40 ------- 1 1.0 3.0 0 0
r 0.180004 5 3 tcp 40 ------- 1 1.0 3.0 0 0
h 0.180004 3 5 ack 40 ------- 1 3.0 1.0 0 1
+ 0.220004 3 5 ack 40 ------- 1 3.0 1.0 0 1
- 0.220004 3 5 ack 40 ------- 1 3.0 1.0 0 1
d 0.220008 4 5 ack 40 ------- 1 3.0 1.0 0 1
d 0.220008 2 5 ack 40 ------- 1 3.0 1.0 0 1
d 0.220008 0 5 ack 40 ------- 1 3.0 1.0 0 1
r 0.260008 5 1 ack 40 ------- 1 3.0 1.0 0 1
h 0.260008 1 5 tcp 1040 ------- 1 1.0 3.0 1 2
h 0.260008 1 5 tcp 1040 ------- 1 1.0 3.0 2 3
+ 0.300008 1 5 tcp 1040 ------- 1 1.0 3.0 1 2
- 0.300008 1 5 tcp 1040 ------- 1 1.0 3.0 1 2
+ 0.300008 1 5 tcp 1040 ------- 1 1.0 3.0 2 3
d 0.300012 4 5 tcp 1040 ------- 1 1.0 3.0 1 2
d 0.300012 2 5 tcp 1040 ------- 1 1.0 3.0 1 2
d 0.300012 0 5 tcp 1040 ------- 1 1.0 3.0 1 2
- 0.304424 1 5 tcp 1040 ------- 1 1.0 3.0 2 3
d 0.304428 4 5 tcp 1040 ------- 1 1.0 3.0 2 3
d 0.304428 2 5 tcp 1040 ------- 1 1.0 3.0 2 3
d 0.304428 0 5 tcp 1040 ------- 1 1.0 3.0 2 3
r 0.340012 5 3 tcp 1040 ------- 1 1.0 3.0 1 2
h 0.340012 3 5 ack 40 ------- 1 3.0 1.0 1 4
r 0.344428 5 3 tcp 1040 ------- 1 1.0 3.0 2 3
h 0.344428 3 5 ack 40 ------- 1 3.0 1.0 2 5
+ 0.380012 3 5 ack 40 ------- 1 3.0 1.0 1 4
- 0.380012 3 5 ack 40 ------- 1 3.0 1.0 1 4
d 0.380016 4 5 ack 40 ------- 1 3.0 1.0 1 4
d 0.380016 2 5 ack 40 ------- 1 3.0 1.0 1 4
d 0.380016 0 5 ack 40 ------- 1 3.0 1.0 1 4
+ 0.384428 3 5 ack 40 ------- 1 3.0 1.0 2 5
- 0.384428 3 5 ack 40 ------- 1 3.0 1.0 2 5
d 0.384432 4 5 ack 40 ------- 1 3.0 1.0 2 5
d 0.384432 2 5 ack 40 ------- 1 3.0 1.0 2 5
d 0.384432 0 5 ack 40 ------- 1 3.0 1.0 2 5
r 0.420016 5 1 ack 40 ------- 1 3.0 1.0 1 4
h 0.420016 1 5 tcp 1040 ------- 1 1.0 3.0 3 6
h 0.420016 1 5 tcp 1040 ------- 1 1.0 3.0 4 7
r 0.424432 5 1 ack 40 ------- 1 3.0 1.0 2 5
h 0.424432 1 5 tcp 1040 ------- 1 1.0 3.0 5 8
h 0.424432 1 5 tcp 1040 ------- 1 1.0 3.0 6 9
+ 0.460016 1 5 tcp 1040 ------- 1 1.0 3.0 3 6
- 0.460016 1 5 tcp 1040 ------- 1 1.0 3.0 3 6
+ 0.460016 1 5 tcp 1040 ------- 1 1.0 3.0 4 7
d 0.46002 4 5 tcp 1040 ------- 1 1.0 3.0 3 6
d 0.46002 2 5 tcp 1040 ------- 1 1.0 3.0 3 6
d 0.46002 0 5 tcp 1040 ------- 1 1.0 3.0 3 6
+ 0.464432 1 5 tcp 1040 ------- 1 1.0 3.0 5 8
+ 0.464432 1 5 tcp 1040 ------- 1 1.0 3.0 6 9
- 0.464432 1 5 tcp 1040 ------- 1 1.0 3.0 4 7
d 0.464436 4 5 tcp 1040 ------- 1 1.0 3.0 4 7
d 0.464436 2 5 tcp 1040 ------- 1 1.0 3.0 4 7
d 0.464436 0 5 tcp 1040 ------- 1 1.0 3.0 4 7
- 0.468848 1 5 tcp 1040 ------- 1 1.0 3.0 5 8
d 0.468852 4 5 tcp 1040 ------- 1 1.0 3.0 5 8
d 0.468852 2 5 tcp 1040 ------- 1 1.0 3.0 5 8
d 0.468852 0 5 tcp 1040 ------- 1 1.0 3.0 5 8
- 0.473264 1 5 tcp 1040 ------- 1 1.0 3.0 6 9
d 0.473268 4 5 tcp 1040 ------- 1 1.0 3.0 6 9
d 0.473268 2 5 tcp 1040 ------- 1 1.0 3.0 6 9
d 0.473268 0 5 tcp 1040 ------- 1 1.0 3.0 6 9
r 0.50002 5 3 tcp 1040 ------- 1 1.0 3.0 3 6
h 0.50002 3 5 ack 40 ------- 1 3.0 1.0 3 10
r 0.504436 5 3 tcp 1040 ------- 1 1.0 3.0 4 7
h 0.504436 3 5 ack 40 ------- 1 3.0 1.0 4 11
r 0.508852 5 3 tcp 1040 ------- 1 1.0 3.0 5 8
h 0.508852 3 5 ack 40 ------- 1 3.0 1.0 5 12
r 0.513268 5 3 tcp 1040 ------- 1 1.0 3.0 6 9
h 0.513268 3 5 ack 40 ------- 1 3.0 1.0 6 13
+ 0.54002 3 5 ack 40 ------- 1 3.0 1.0 3 10
- 0.54002 3 5 ack 40 ------- 1 3.0 1.0 3 10
d 0.540024 4 5 ack 40 ------- 1 3.0 1.0 3 10
d 0.540024 2 5 ack 40 ------- 1 3.0 1.0 3 10
d 0.540024 0 5 ack 40 ------- 1 3.0 1.0 3 10
+ 0.544436 3 5 ack 40 ------- 1 3.0 1.0 4 11
- 0.544436 3 5 ack 40 ------- 1 3.0 1.0 4 11
d 0.54444 4 5 ack 40 ------- 1 3.0 1.0 4 11
d 0.54444 2 5 ack 40 ------- 1 3.0 1.0 4 11
d 0.54444 0 5 ack 40 ------- 1 3.0 1.0 4 11
+ 0.548852 3 5 ack 40 ------- 1 3.0 1.0 5 12
- 0.548852 3 5 ack 40 ------- 1 3.0 1.0 5 12
d 0.548856 4 5 ack 40 ------- 1 3.0 1.0 5 12
d 0.548856 2 5 ack 40 ------- 1 3.0 1.0 5 12
d 0.548856 0 5 ack 40 ------- 1 3.0 1.0 5 12
+ 0.553268 3 5 ack 40 ------- 1 3.0 1.0 6 13
- 0.553268 3 5 ack 40 ------- 1 3.0 1.0 6 13
d 0.553272 4 5 ack 40 ------- 1 3.0 1.0 6 13
d 0.553272 2 5 ack 40 ------- 1 3.0 1.0 6 13
d 0.553272 0 5 ack 40 ------- 1 3.0 1.0 6 13
r 0.580024 5 1 ack 40 ------- 1 3.0 1.0 3 10
h 0.580024 1 5 tcp 1040 ------- 1 1.0 3.0 7 14
h 0.580024 1 5 tcp 1040 ------- 1 1.0 3.0 8 15
r 0.58444 5 1 ack 40 ------- 1 3.0 1.0 4 11
h 0.58444 1 5 tcp 1040 ------- 1 1.0 3.0 9 16
h 0.58444 1 5 tcp 1040 ------- 1 1.0 3.0 10 17
r 0.588856 5 1 ack 40 ------- 1 3.0 1.0 5 12
h 0.588856 1 5 tcp 1040 ------- 1 1.0 3.0 11 18
h 0.588856 1 5 tcp 1040 ------- 1 1.0 3.0 12 19
r 0.593272 5 1 ack 40 ------- 1 3.0 1.0 6 13
h 0.593272 1 5 tcp 1040 ------- 1 1.0 3.0 13 20
h 0.593272 1 5 tcp 1040 ------- 1 1.0 3.0 14 21
+ 0.620024 1 5 tcp 1040 ------- 1 1.0 3.0 7 14
- 0.620024 1 5 tcp 1040 ------- 1 1.0 3.0 7 14
+ 0.620024 1 5 tcp 1040 ------- 1 1.0 3.0 8 15
d 0.620028 4 5 tcp 1040 ------- 1 1.0 3.0 7 14
d 0.620028 2 5 tcp 1040 ------- 1 1.0 3.0 7 14
d 0.620028 0 5 tcp 1040 ------- 1 1.0 3.0 7 14
+ 0.62444 1 5 tcp 1040 ------- 1 1.0 3.0 9 16
+ 0.62444 1 5 tcp 1040 ------- 1 1.0 3.0 10 17
- 0.62444 1 5 tcp 1040 ------- 1 1.0 3.0 8 15
d 0.624444 4 5 tcp 1040 ------- 1 1.0 3.0 8 15
d 0.624444 2 5 tcp 1040 ------- 1 1.0 3.0 8 15
d 0.624444 0 5 tcp 1040 ------- 1 1.0 3.0 8 15
+ 0.628856 1 5 tcp 1040 ------- 1 1.0 3.0 11 18
+ 0.628856 1 5 tcp 1040 ------- 1 1.0 3.0 12 19
- 0.628856 1 5 tcp 1040 ------- 1 1.0 3.0 9 16
d 0.62886 4 5 tcp 1040 ------- 1 1.0 3.0 9 16
d 0.62886 2 5 tcp 1040 ------- 1 1.0 3.0 9 16
d 0.62886 0 5 tcp 1040 ------- 1 1.0 3.0 9 16
+ 0.633272 1 5 tcp 1040 ------- 1 1.0 3.0 13 20
+ 0.633272 1 5 tcp 1040 ------- 1 1.0 3.0 14 21
- 0.633272 1 5 tcp 1040 ------- 1 1.0 3.0 10 17
d 0.633276 4 5 tcp 1040 ------- 1 1.0 3.0 10 17
d 0.633276 2 5 tcp 1040 ------- 1 1.0 3.0 10 17
d 0.633276 0 5 tcp 1040 ------- 1 1.0 3.0 10 17
- 0.637688 1 5 tcp 1040 ------- 1 1.0 3.0 11 18
d 0.637692 4 5 tcp 1040 ------- 1 1.0 3.0 11 18
d 0.637692 2 5 tcp 1040 ------- 1 1.0 3.0 11 18
d 0.637692 0 5 tcp 1040 ------- 1 1.0 3.0 11 18
- 0.642104 1 5 tcp 1040 ------- 1 1.0 3.0 12 19
d 0.642108 4 5 tcp 1040 ------- 1 1.0 3.0 12 19
d 0.642108 2 5 tcp 1040 ------- 1 1.0 3.0 12 19
d 0.642108 0 5 tcp 1040 ------- 1 1.0 3.0 12 19
- 0.64652 1 5 tcp 1040 ------- 1 1.0 3.0 13 20
d 0.646524 4 5 tcp 1040 ------- 1 1.0 3.0 13 20
d 0.646524 2 5 tcp 1040 ------- 1 1.0 3.0 13 20
d 0.646524 0 5 tcp 1040 ------- 1 1.0 3.0 13 20
- 0.650936 1 5 tcp 1040 ------- 1 1.0 3.0 14 21
d 0.65094 4 5 tcp 1040 ------- 1 1.0 3.0 14 21
d 0.65094 2 5 tcp 1040 ------- 1 1.0 3.0 14 21
d 0.65094 0 5 tcp 1040 ------- 1 1.0 3.0 14 21
r 0.660028 5 3 tcp 1040 ------- 1 1.0 3.0 7 14
h 0.660028 3 5 ack 40 ------- 1 3.0 1.0 7 22
r 0.664444 5 3 tcp 1040 ------- 1 1.0 3.0 8 15
h 0.664444 3 5 ack 40 ------- 1 3.0 1.0 8 23
r 0.66886 5 3 tcp 1040 ------- 1 1.0 3.0 9 16
h 0.66886 3 5 ack 40 ------- 1 3.0 1.0 9 24
r 0.673276 5 3 tcp 1040 ------- 1 1.0 3.0 10 17
h 0.673276 3 5 ack 40 ------- 1 3.0 1.0 10 25
r 0.677692 5 3 tcp 1040 ------- 1 1.0 3.0 11 18
h 0.677692 3 5 ack 40 ------- 1 3.0 1.0 11 26
r 0.682108 5 3 tcp 1040 ------- 1 1.0 3.0 12 19
h 0.682108 3 5 ack 40 ------- 1 3.0 1.0 12 27
r 0.686524 5 3 tcp 1040 ------- 1 1.0 3.0 13 20
h 0.686524 3 5 ack 40 ------- 1 3.0 1.0 13 28
r 0.69094 5 3 tcp 1040 ------- 1 1.0 3.0 14 21
h 0.69094 3 5 ack 40 ------- 1 3.0 1.0 14 29
+ 0.700028 3 5 ack 40 ------- 1 3.0 1.0 7 22
- 0.700028 3 5 ack 40 ------- 1 3.0 1.0 7 22
d 0.700032 4 5 ack 40 ------- 1 3.0 1.0 7 22
d 0.700032 2 5 ack 40 ------- 1 3.0 1.0 7 22
d 0.700032 0 5 ack 40 ------- 1 3.0 1.0 7 22
+ 0.704444 3 5 ack 40 ------- 1 3.0 1.0 8 23
- 0.704444 3 5 ack 40 ------- 1 3.0 1.0 8 23
d 0.704448 4 5 ack 40 ------- 1 3.0 1.0 8 23
d 0.704448 2 5 ack 40 ------- 1 3.0 1.0 8 23
d 0.704448 0 5 ack 40 ------- 1 3.0 1.0 8 23
+ 0.70886 3 5 ack 40 ------- 1 3.0 1.0 9 24
- 0.70886 3 5 ack 40 ------- 1 3.0 1.0 9 24
d 0.708864 4 5 ack 40 ------- 1 3.0 1.0 9 24
d 0.708864 2 5 ack 40 ------- 1 3.0 1.0 9 24
d 0.708864 0 5 ack 40 ------- 1 3.0 1.0 9 24
+ 0.713276 3 5 ack 40 ------- 1 3.0 1.0 10 25
- 0.713276 3 5 ack 40 ------- 1 3.0 1.0 10 25
d 0.71328 4 5 ack 40 ------- 1 3.0 1.0 10 25
d 0.71328 2 5 ack 40 ------- 1 3.0 1.0 10 25
d 0.71328 0 5 ack 40 ------- 1 3.0 1.0 10 25
+ 0.717692 3 5 ack 40 ------- 1 3.0 1.0 11 26
- 0.717692 3 5 ack 40 ------- 1 3.0 1.0 11 26
d 0.717696 4 5 ack 40 ------- 1 3.0 1.0 11 26
d 0.717696 2 5 ack 40 ------- 1 3.0 1.0 11 26
d 0.717696 0 5 ack 40 ------- 1 3.0 1.0 11 26
+ 0.722108 3 5 ack 40 ------- 1 3.0 1.0 12 27
- 0.722108 3 5 ack 40 ------- 1 3.0 1.0 12 27
d 0.722112 4 5 ack 40 ------- 1 3.0 1.0 12 27
d 0.722112 2 5 ack 40 ------- 1 3.0 1.0 12 27
d 0.722112 0 5 ack 40 ------- 1 3.0 1.0 12 27
+ 0.726524 3 5 ack 40 ------- 1 3.0 1.0 13 28
- 0.726524 3 5 ack 40 ------- 1 3.0 1.0 13 28
d 0.726528 4 5 ack 40 ------- 1 3.0 1.0 13 28
d 0.726528 2 5 ack 40 ------- 1 3.0 1.0 13 28
d 0.726528 0 5 ack 40 ------- 1 3.0 1.0 13 28
+ 0.73094 3 5 ack 40 ------- 1 3.0 1.0 14 29
- 0.73094 3 5 ack 40 ------- 1 3.0 1.0 14 29
d 0.730944 4 5 ack 40 ------- 1 3.0 1.0 14 29
d 0.730944 2 5 ack 40 ------- 1 3.0 1.0 14 29
d 0.730944 0 5 ack 40 ------- 1 3.0 1.0 14 29
r 0.740032 5 1 ack 40 ------- 1 3.0 1.0 7 22
h 0.740032 1 5 tcp 1040 ------- 1 1.0 3.0 15 30
h 0.740032 1 5 tcp 1040 ------- 1 1.0 3.0 16 31
r 0.744448 5 1 ack 40 ------- 1 3.0 1.0 8 23
h 0.744448 1 5 tcp 1040 ------- 1 1.0 3.0 17 32
h 0.744448 1 5 tcp 1040 ------- 1 1.0 3.0 18 33
r 0.748864 5 1 ack 40 ------- 1 3.0 1.0 9 24
h 0.748864 1 5 tcp 1040 ------- 1 1.0 3.0 19 34
h 0.748864 1 5 tcp 1040 ------- 1 1.0 3.0 20 35
r 0.75328 5 1 ack 40 ------- 1 3.0 1.0 10 25
h 0.75328 1 5 tcp 1040 ------- 1 1.0 3.0 21 36
h 0.75328 1 5 tcp 1040 ------- 1 1.0 3.0 22 37
r 0.757696 5 1 ack 40 ------- 1 3.0 1.0 11 26
h 0.757696 1 5 tcp 1040 ------- 1 1.0 3.0 23 38
h 0.757696 1 5 tcp 1040 ------- 1 1.0 3.0 24 39
r 0.762112 5 1 ack 40 ------- 1 3.0 1.0 12 27
h 0.762112 1 5 tcp 1040 ------- 1 1.0 3.0 25 40
h 0.762112 1 5 tcp 1040 ------- 1 1.0 3.0 26 41
r 0.766528 5 1 ack 40 ------- 1 3.0 1.0 13 28
h 0.766528 1 5 tcp 1040 ------- 1 1.0 3.0 27 42
h 0.766528 1 5 tcp 1040 ------- 1 1.0 3.0 28 43
r 0.770944 5 1 ack 40 ------- 1 3.0 1.0 14 29
h 0.770944 1 5 tcp 1040 ------- 1 1.0 3.0 29 44
h 0.770944 1 5 tcp 1040 ------- 1 1.0 3.0 30 45
+ 0.780032 1 5 tcp 1040 ------- 1 1.0 3.0 15 30
- 0.780032 1 5 tcp 1040 ------- 1 1.0 3.0 15 30
+ 0.780032 1 5 tcp 1040 ------- 1 1.0 3.0 16 31
d 0.780036 4 5 tcp 1040 ------- 1 1.0 3.0 15 30
d 0.780036 2 5 tcp 1040 ------- 1 1.0 3.0 15 30
d 0.780036 0 5 tcp 1040 ------- 1 1.0 3.0 15 30
+ 0.784448 1 5 tcp 1040 ------- 1 1.0 3.0 17 32
+ 0.784448 1 5 tcp 1040 ------- 1 1.0 3.0 18 33
- 0.784448 1 5 tcp 1040 ------- 1 1.0 3.0 16 31
d 0.784452 4 5 tcp 1040 ------- 1 1.0 3.0 16 31
d 0.784452 2 5 tcp 1040 ------- 1 1.0 3.0 16 31
d 0.784452 0 5 tcp 1040 ------- 1 1.0 3.0 16 31
+ 0.788864 1 5 tcp 1040 ------- 1 1.0 3.0 19 34
+ 0.788864 1 5 tcp 1040 ------- 1 1.0 3.0 20 35
- 0.788864 1 5 tcp 1040 ------- 1 1.0 3.0 17 32
d 0.788868 4 5 tcp 1040 ------- 1 1.0 3.0 17 32
d 0.788868 2 5 tcp 1040 ------- 1 1.0 3.0 17 32
d 0.788868 0 5 tcp 1040 ------- 1 1.0 3.0 17 32
+ 0.79328 1 5 tcp 1040 ------- 1 1.0 3.0 21 36
+ 0.79328 1 5 tcp 1040 ------- 1 1.0 3.0 22 37
- 0.79328 1 5 tcp 1040 ------- 1 1.0 3.0 18 33
d 0.793284 4 5 tcp 1040 ------- 1 1.0 3.0 18 33
d 0.793284 2 5 tcp 1040 ------- 1 1.0 3.0 18 33
d 0.793284 0 5 tcp 1040 ------- 1 1.0 3.0 18 33
+ 0.797696 1 5 tcp 1040 ------- 1 1.0 3.0 23 38
+ 0.797696 1 5 tcp 1040 ------- 1 1.0 3.0 24 39
- 0.797696 1 5 tcp 1040 ------- 1 1.0 3.0 19 34
d 0.7977 4 5 tcp 1040 ------- 1 1.0 3.0 19 34
d 0.7977 2 5 tcp 1040 ------- 1 1.0 3.0 19 34
d 0.7977 0 5 tcp 1040 ------- 1 1.0 3.0 19 34
+ 0.802112 1 5 tcp 1040 ------- 1 1.0 3.0 25 40
+ 0.802112 1 5 tcp 1040 ------- 1 1.0 3.0 26 41
- 0.802112 1 5 tcp 1040 ------- 1 1.0 3.0 20 35
d 0.802116 4 5 tcp 1040 ------- 1 1.0 3.0 20 35
d 0.802116 2 5 tcp 1040 ------- 1 1.0 3.0 20 35
d 0.802116 0 5 tcp 1040 ------- 1 1.0 3.0 20 35
+ 0.806528 1 5 tcp 1040 ------- 1 1.0 3.0 27 42
+ 0.806528 1 5 tcp 1040 ------- 1 1.0 3.0 28 43
- 0.806528 1 5 tcp 1040 ------- 1 1.0 3.0 21 36
d 0.806532 4 5 tcp 1040 ------- 1 1.0 3.0 21 36
d 0.806532 2 5 tcp 1040 ------- 1 1.0 3.0 21 36
d 0.806532 0 5 tcp 1040 ------- 1 1.0 3.0 21 36
+ 0.810944 1 5 tcp 1040 ------- 1 1.0 3.0 29 44
+ 0.810944 1 5 tcp 1040 ------- 1 1.0 3.0 30 45
- 0.810944 1 5 tcp 1040 ------- 1 1.0 3.0 22 37
d 0.810948 4 5 tcp 1040 ------- 1 1.0 3.0 22 37
d 0.810948 2 5 tcp 1040 ------- 1 1.0 3.0 22 37
d 0.810948 0 5 tcp 1040 ------- 1 1.0 3.0 22 37
- 0.81536 1 5 tcp 1040 ------- 1 1.0 3.0 23 38
d 0.815364 4 5 tcp 1040 ------- 1 1.0 3.0 23 38
d 0.815364 2 5 tcp 1040 ------- 1 1.0 3.0 23 38
d 0.815364 0 5 tcp 1040 ------- 1 1.0 3.0 23 38
- 0.819776 1 5 tcp 1040 ------- 1 1.0 3.0 24 39
d 0.81978 4 5 tcp 1040 ------- 1 1.0 3.0 24 39
d 0.81978 2 5 tcp 1040 ------- 1 1.0 3.0 24 39
d 0.81978 0 5 tcp 1040 ------- 1 1.0 3.0 24 39
r 0.820036 5 3 tcp 1040 ------- 1 1.0 3.0 15 30
h 0.820036 3 5 ack 40 ------- 1 3.0 1.0 15 46
- 0.824192 1 5 tcp 1040 ------- 1 1.0 3.0 25 40
d 0.824196 4 5 tcp 1040 ------- 1 1.0 3.0 25 40
d 0.824196 2 5 tcp 1040 ------- 1 1.0 3.0 25 40
d 0.824196 0 5 tcp 1040 ------- 1 1.0 3.0 25 40
r 0.824452 5 3 tcp 1040 ------- 1 1.0 3.0 16 31
h 0.824452 3 5 ack 40 ------- 1 3.0 1.0 16 47
- 0.828608 1 5 tcp 1040 ------- 1 1.0 3.0 26 41
d 0.828612 4 5 tcp 1040 ------- 1 1.0 3.0 26 41
d 0.828612 2 5 tcp 1040 ------- 1 1.0 3.0 26 41
d 0.828612 0 5 tcp 1040 ------- 1 1.0 3.0 26 41
r 0.828868 5 3 tcp 1040 ------- 1 1.0 3.0 17 32
h 0.828868 3 5 ack 40 ------- 1 3.0 1.0 17 48
- 0.833024 1 5 tcp 1040 ------- 1 1.0 3.0 27 42
d 0.833028 4 5 tcp 1040 ------- 1 1.0 3.0 27 42
d 0.833028 2 5 tcp 1040 ------- 1 1.0 3.0 27 42
d 0.833028 0 5 tcp 1040 ------- 1 1.0 3.0 27 42
r 0.833284 5 3 tcp 1040 ------- 1 1.0 3.0 18 33
h 0.833284 3 5 ack 40 ------- 1 3.0 1.0 18 49
- 0.83744 1 5 tcp 1040 ------- 1 1.0 3.0 28 43
d 0.837444 4 5 tcp 1040 ------- 1 1.0 3.0 28 43
d 0.837444 2 5 tcp 1040 ------- 1 1.0 3.0 28 43
d 0.837444 0 5 tcp 1040 ------- 1 1.0 3.0 28 43
r 0.8377 5 3 tcp 1040 ------- 1 1.0 3.0 19 34
h 0.8377 3 5 ack 40 ------- 1 3.0 1.0 19 50
- 0.841856 1 5 tcp 1040 ------- 1 1.0 3.0 29 44
d 0.84186 4 5 tcp 1040 ------- 1 1.0 3.0 29 44
d 0.84186 2 5 tcp 1040 ------- 1 1.0 3.0 29 44
d 0.84186 0 5 tcp 1040 ------- 1 1.0 3.0 29 44
r 0.842116 5 3 tcp 1040 ------- 1 1.0 3.0 20 35
h 0.842116 3 5 ack 40 ------- 1 3.0 1.0 20 51
- 0.846272 1 5 tcp 1040 ------- 1 1.0 3.0 30 45
d 0.846276 4 5 tcp 1040 ------- 1 1.0 3.0 30 45
d 0.846276 2 5 tcp 1040 ------- 1 1.0 3.0 30 45
d 0.846276 0 5 tcp 1040 ------- 1 1.0 3.0 30 45
r 0.846532 5 3 tcp 1040 ------- 1 1.0 3.0 21 36
h 0.846532 3 5 ack 40 ------- 1 3.0 1.0 21 52
r 0.850948 5 3 tcp 1040 ------- 1 1.0 3.0 22 37
h 0.850948 3 5 ack 40 ------- 1 3.0 1.0 22 53
r 0.855364 5 3 tcp 1040 ------- 1 1.0 3.0 23 38
h 0.855364 3 5 ack 40 ------- 1 3.0 1.0 23 54
r 0.85978 5 3 tcp 1040 ------- 1 1.0 3.0 24 39
h 0.85978 3 5 ack 40 ------- 1 3.0 1.0 24 55
+ 0.860036 3 5 ack 40 ------- 1 3.0 1.0 15 46
- 0.860036 3 5 ack 40 ------- 1 3.0 1.0 15 46
d 0.86004 4 5 ack 40 ------- 1 3.0 1.0 15 46
d 0.86004 2 5 ack 40 ------- 1 3.0 1.0 15 46
d 0.86004 0 5 ack 40 ------- 1 3.0 1.0 15 46
r 0.864196 5 3 tcp 1040 ------- 1 1.0 3.0 25 40
h 0.864196 3 5 ack 40 ------- 1 3.0 1.0 25 56
+ 0.864452 3 5 ack 40 ------- 1 3.0 1.0 16 47
- 0.864452 3 5 ack 40 ------- 1 3.0 1.0 16 47
d 0.864456 4 5 ack 40 ------- 1 3.0 1.0 16 47
d 0.864456 2 5 ack 40 ------- 1 3.0 1.0 16 47
d 0.864456 0 5 ack 40 ------- 1 3.0 1.0 16 47
r 0.868612 5 3 tcp 1040 ------- 1 1.0 3.0 26 41
h 0.868612 3 5 ack 40 ------- 1 3.0 1.0 26 57
+ 0.868868 3 5 ack 40 ------- 1 3.0 1.0 17 48
- 0.868868 3 5 ack 40 ------- 1 3.0 1.0 17 48
d 0.868872 4 5 ack 40 ------- 1 3.0 1.0 17 48
d 0.868872 2 5 ack 40 ------- 1 3.0 1.0 17 48
d 0.868872 0 5 ack 40 ------- 1 3.0 1.0 17 48
r 0.873028 5 3 tcp 1040 ------- 1 1.0 3.0 27 42
h 0.873028 3 5 ack 40 ------- 1 3.0 1.0 27 58
+ 0.873284 3 5 ack 40 ------- 1 3.0 1.0 18 49
- 0.873284 3 5 ack 40 ------- 1 3.0 1.0 18 49
d 0.873288 4 5 ack 40 ------- 1 3.0 1.0 18 49
d 0.873288 2 5 ack 40 ------- 1 3.0 1.0 18 49
d 0.873288 0 5 ack 40 ------- 1 3.0 1.0 18 49
r 0.877444 5 3 tcp 1040 ------- 1 1.0 3.0 28 43
h 0.877444 3 5 ack 40 ------- 1 3.0 1.0 28 59
+ 0.8777 3 5 ack 40 ------- 1 3.0 1.0 19 50
- 0.8777 3 5 ack 40 ------- 1 3.0 1.0 19 50
d 0.877704 4 5 ack 40 ------- 1 3.0 1.0 19 50
d 0.877704 2 5 ack 40 ------- 1 3.0 1.0 19 50
d 0.877704 0 5 ack 40 ------- 1 3.0 1.0 19 50
r 0.88186 5 3 tcp 1040 ------- 1 1.0 3.0 29 44
h 0.88186 3 5 ack 40 ------- 1 3.0 1.0 29 60
+ 0.882116 3 5 ack 40 ------- 1 3.0 1.0 20 51
- 0.882116 3 5 ack 40 ------- 1 3.0 1.0 20 51
d 0.88212 4 5 ack 40 ------- 1 3.0 1.0 20 51
d 0.88212 2 5 ack 40 ------- 1 3.0 1.0 20 51
d 0.88212 0 5 ack 40 ------- 1 3.0 1.0 20 51
r 0.886276 5 3 tcp 1040 ------- 1 1.0 3.0 30 45
h 0.886276 3 5 ack 40 ------- 1 3.0 1.0 30 61
+ 0.886532 3 5 ack 40 ------- 1 3.0 1.0 21 52
- 0.886532 3 5 ack 40 ------- 1 3.0 1.0 21 52
d 0.886536 4 5 ack 40 ------- 1 3.0 1.0 21 52
d 0.886536 2 5 ack 40 ------- 1 3.0 1.0 21 52
d 0.886536 0 5 ack 40 ------- 1 3.0 1.0 21 52
+ 0.890948 3 5 ack 40 ------- 1 3.0 1.0 22 53
- 0.890948 3 5 ack 40 ------- 1 3.0 1.0 22 53
d 0.890952 4 5 ack 40 ------- 1 3.0 1.0 22 53
d 0.890952 2 5 ack 40 ------- 1 3.0 1.0 22 53
d 0.890952 0 5 ack 40 ------- 1 3.0 1.0 22 53
+ 0.895364 3 5 ack 40 ------- 1 3.0 1.0 23 54
- 0.895364 3 5 ack 40 ------- 1 3.0 1.0 23 54
d 0.895368 4 5 ack 40 ------- 1 3.0 1.0 23 54
d 0.895368 2 5 ack 40 ------- 1 3.0 1.0 23 54
d 0.895368 0 5 ack 40 ------- 1 3.0 1.0 23 54
+ 0.89978 3 5 ack 40 ------- 1 3.0 1.0 24 55
- 0.89978 3 5 ack 40 ------- 1 3.0 1.0 24 55
d 0.899784 4 5 ack 40 ------- 1 3.0 1.0 24 55
d 0.899784 2 5 ack 40 ------- 1 3.0 1.0 24 55
d 0.899784 0 5 ack 40 ------- 1 3.0 1.0 24 55
r 0.90004 5 1 ack 40 ------- 1 3.0 1.0 15 46
h 0.90004 1 5 tcp 1040 ------- 1 1.0 3.0 31 62
h 0.90004 1 5 tcp 1040 ------- 1 1.0 3.0 32 63
+ 0.904196 3 5 ack 40 ------- 1 3.0 1.0 25 56
- 0.904196 3 5 ack 40 ------- 1 3.0 1.0 25 56
d 0.9042 4 5 ack 40 ------- 1 3.0 1.0 25 56
d 0.9042 2 5 ack 40 ------- 1 3.0 1.0 25 56
d 0.9042 0 5 ack 40 ------- 1 3.0 1.0 25 56
r 0.904456 5 1 ack 40 ------- 1 3.0 1.0 16 47
h 0.904456 1 5 tcp 1040 ------- 1 1.0 3.0 33 64
h 0.904456 1 5 tcp 1040 ------- 1 1.0 3.0 34 65
+ 0.908612 3 5 ack 40 ------- 1 3.0 1.0 26 57
- 0.908612 3 5 ack 40 ------- 1 3.0 1.0 26 57
d 0.908616 4 5 ack 40 ------- 1 3.0 1.0 26 57
d 0.908616 2 5 ack 40 ------- 1 3.0 1.0 26 57
d 0.908616 0 5 ack 40 ------- 1 3.0 1.0 26 57
r 0.908872 5 1 ack 40 ------- 1 3.0 1.0 17 48
h 0.908872 1 5 tcp 1040 ------- 1 1.0 3.0 35 66
h 0.908872 1 5 tcp 1040 ------- 1 1.0 3.0 36 67
+ 0.913028 3 5 ack 40 ------- 1 3.0 1.0 27 58
- 0.913028 3 5 ack 40 ------- 1 3.0 1.0 27 58
d 0.913032 4 5 ack 40 ------- 1 3.0 1.0 27 58
d 0.913032 2 5 ack 40 ------- 1 3.0 1.0 27 58
d 0.913032 0 5 ack 40 ------- 1 3.0 1.0 27 58
r 0.913288 5 1 ack 40 ------- 1 3.0 1.0 18 49
h 0.913288 1 5 tcp 1040 ------- 1 1.0 3.0 37 68
h 0.913288 1 5 tcp 1040 ------- 1 1.0 3.0 38 69
+ 0.917444 3 5 ack 40 ------- 1 3.0 1.0 28 59
- 0.917444 3 5 ack 40 ------- 1 3.0 1.0 28 59
d 0.917448 4 5 ack 40 ------- 1 3.0 1.0 28 59
d 0.917448 2 5 ack 40 ------- 1 3.0 1.0 28 59
d 0.917448 0 5 ack 40 ------- 1 3.0 1.0 28 59
r 0.917704 5 1 ack 40 ------- 1 3.0 1.0 19 50
h 0.917704 1 5 tcp 1040 ------- 1 1.0 3.0 39 70
+ 0.92186 3 5 ack 40 ------- 1 3.0 1.0 29 60
- 0.92186 3 5 ack 40 ------- 1 3.0 1.0 29 60
d 0.921864 4 5 ack 40 ------- 1 3.0 1.0 29 60
d 0.921864 2 5 ack 40 ------- 1 3.0 1.0 29 60
d 0.921864 0 5 ack 40 ------- 1 3.0 1.0 29 60
r 0.92212 5 1 ack 40 ------- 1 3.0 1.0 20 51
h 0.92212 1 5 tcp 1040 ------- 1 1.0 3.0 40 71
+ 0.926276 3 5 ack 40 ------- 1 3.0 1.0 30 61
- 0.926276 3 5 ack 40 ------- 1 3.0 1.0 30 61
d 0.92628 4 5 ack 40 ------- 1 3.0 1.0 30 61
d 0.92628 2 5 ack 40 ------- 1 3.0 1.0 30 61
d 0.92628 0 5 ack 40 ------- 1 3.0 1.0 30 61
r 0.926536 5 1 ack 40 ------- 1 3.0 1.0 21 52
h 0.926536 1 5 tcp 1040 ------- 1 1.0 3.0 41 72
r 0.930952 5 1 ack 40 ------- 1 3.0 1.0 22 53
h 0.930952 1 5 tcp 1040 ------- 1 1.0 3.0 42 73
r 0.935368 5 1 ack 40 ------- 1 3.0 1.0 23 54
h 0.935368 1 5 tcp 1040 ------- 1 1.0 3.0 43 74
r 0.939784 5 1 ack 40 ------- 1 3.0 1.0 24 55
h 0.939784 1 5 tcp 1040 ------- 1 1.0 3.0 44 75
+ 0.94004 1 5 tcp 1040 ------- 1 1.0 3.0 31 62
- 0.94004 1 5 tcp 1040 ------- 1 1.0 3.0 31 62
+ 0.94004 1 5 tcp 1040 ------- 1 1.0 3.0 32 63
d 0.940044 4 5 tcp 1040 ------- 1 1.0 3.0 31 62
d 0.940044 2 5 tcp 1040 ------- 1 1.0 3.0 31 62
d 0.940044 0 5 tcp 1040 ------- 1 1.0 3.0 31 62
r 0.9442 5 1 ack 40 ------- 1 3.0 1.0 25 56
h 0.9442 1 5 tcp 1040 ------- 1 1.0 3.0 45 76
+ 0.944456 1 5 tcp 1040 ------- 1 1.0 3.0 33 64
+ 0.944456 1 5 tcp 1040 ------- 1 1.0 3.0 34 65
- 0.944456 1 5 tcp 1040 ------- 1 1.0 3.0 32 63
d 0.94446 4 5 tcp 1040 ------- 1 1.0 3.0 32 63
d 0.94446 2 5 tcp 1040 ------- 1 1.0 3.0 32 63
d 0.94446 0 5 tcp 1040 ------- 1 1.0 3.0 32 63
r 0.948616 5 1 ack 40 ------- 1 3.0 1.0 26 57
h 0.948616 1 5 tcp 1040 ------- 1 1.0 3.0 46 77
+ 0.948872 1 5 tcp 1040 ------- 1 1.0 3.0 35 66
+ 0.948872 1 5 tcp 1040 ------- 1 1.0 3.0 36 67
- 0.948872 1 5 tcp 1040 ------- 1 1.0 3.0 33 64
d 0.948876 4 5 tcp 1040 ------- 1 1.0 3.0 33 64
d 0.948876 2 5 tcp 1040 ------- 1 1.0 3.0 33 64
d 0.948876 0 5 tcp 1040 ------- 1 1.0 3.0 33 64
r 0.953032 5 1 ack 40 ------- 1 3.0 1.0 27 58
h 0.953032 1 5 tcp 1040 ------- 1 1.0 3.0 47 78
+ 0.953288 1 5 tcp 1040 ------- 1 1.0 3.0 37 68
+ 0.953288 1 5 tcp 1040 ------- 1 1.0 3.0 38 69
- 0.953288 1 5 tcp 1040 ------- 1 1.0 3.0 34 65
d 0.953292 4 5 tcp 1040 ------- 1 1.0 3.0 34 65
d 0.953292 2 5 tcp 1040 ------- 1 1.0 3.0 34 65
d 0.953292 0 5 tcp 1040 ------- 1 1.0 3.0 34 65
r 0.957448 5 1 ack 40 ------- 1 3.0 1.0 28 59
h 0.957448 1 5 tcp 1040 ------- 1 1.0 3.0 48 79
+ 0.957704 1 5 tcp 1040 ------- 1 1.0 3.0 39 70
- 0.957704 1 5 tcp 1040 ------- 1 1.0 3.0 35 66
d 0.957708 4 5 tcp 1040 ------- 1 1.0 3.0 35 66
d 0.957708 2 5 tcp 1040 ------- 1 1.0 3.0 35 66
d 0.957708 0 5 tcp 1040 ------- 1 1.0 3.0 35 66
r 0.961864 5 1 ack 40 ------- 1 3.0 1.0 29 60
h 0.961864 1 5 tcp 1040 ------- 1 1.0 3.0 49 80
+ 0.96212 1 5 tcp 1040 ------- 1 1.0 3.0 40 71
- 0.96212 1 5 tcp 1040 ------- 1 1.0 3.0 36 67
d 0.962124 4 5 tcp 1040 ------- 1 1.0 3.0 36 67
d 0.962124 2 5 tcp 1040 ------- 1 1.0 3.0 36 67
d 0.962124 0 5 tcp 1040 ------- 1 1.0 3.0 36 67
r 0.96628 5 1 ack 40 ------- 1 3.0 1.0 30 61
h 0.96628 1 5 tcp 1040 ------- 1 1.0 3.0 50 81
+ 0.966536 1 5 tcp 1040 ------- 1 1.0 3.0 41 72
- 0.966536 1 5 tcp 1040 ------- 1 1.0 3.0 37 68
d 0.96654 4 5 tcp 1040 ------- 1 1.0 3.0 37 68
d 0.96654 2 5 tcp 1040 ------- 1 1.0 3.0 37 68
d 0.96654 0 5 tcp 1040 ------- 1 1.0 3.0 37 68
+ 0.970952 1 5 tcp 1040 ------- 1 1.0 3.0 42 73
- 0.970952 1 5 tcp 1040 ------- 1 1.0 3.0 38 69
d 0.970956 4 5 tcp 1040 ------- 1 1.0 3.0 38 69
d 0.970956 2 5 tcp 1040 ------- 1 1.0 3.0 38 69
d 0.970956 0 5 tcp 1040 ------- 1 1.0 3.0 38 69
+ 0.975368 1 5 tcp 1040 ------- 1 1.0 3.0 43 74
- 0.975368 1 5 tcp 1040 ------- 1 1.0 3.0 39 70
d 0.975372 4 5 tcp 1040 ------- 1 1.0 3.0 39 70
d 0.975372 2 5 tcp 1040 ------- 1 1.0 3.0 39 70
d 0.975372 0 5 tcp 1040 ------- 1 1.0 3.0 39 70
+ 0.979784 1 5 tcp 1040 ------- 1 1.0 3.0 44 75
- 0.979784 1 5 tcp 1040 ------- 1 1.0 3.0 40 71
d 0.979788 4 5 tcp 1040 ------- 1 1.0 3.0 40 71
d 0.979788 2 5 tcp 1040 ------- 1 1.0 3.0 40 71
d 0.979788 0 5 tcp 1040 ------- 1 1.0 3.0 40 71
r 0.980044 5 3 tcp 1040 ------- 1 1.0 3.0 31 62
h 0.980044 3 5 ack 40 ------- 1 3.0 1.0 31 82
+ 0.9842 1 5 tcp 1040 ------- 1 1.0 3.0 45 76
- 0.9842 1 5 tcp 1040 ------- 1 1.0 3.0 41 72
d 0.984204 4 5 tcp 1040 ------- 1 1.0 3.0 41 72
d 0.984204 2 5 tcp 1040 ------- 1 1.0 3.0 41 72
d 0.984204 0 5 tcp 1040 ------- 1 1.0 3.0 41 72
r 0.98446 5 3 tcp 1040 ------- 1 1.0 3.0 32 63
h 0.98446 3 5 ack 40 ------- 1 3.0 1.0 32 83
+ 0.988616 1 5 tcp 1040 ------- 1 1.0 3.0 46 77
- 0.988616 1 5 tcp 1040 ------- 1 1.0 3.0 42 73
d 0.98862 4 5 tcp 1040 ------- 1 1.0 3.0 42 73
d 0.98862 2 5 tcp 1040 ------- 1 1.0 3.0 42 73
d 0.98862 0 5 tcp 1040 ------- 1 1.0 3.0 42 73
r 0.988876 5 3 tcp 1040 ------- 1 1.0 3.0 33 64
h 0.988876 3 5 ack 40 ------- 1 3.0 1.0 33 84
+ 0.993032 1 5 tcp 1040 ------- 1 1.0 3.0 47 78
- 0.993032 1 5 tcp 1040 ------- 1 1.0 3.0 43 74
d 0.993036 4 5 tcp 1040 ------- 1 1.0 3.0 43 74
d 0.993036 2 5 tcp 1040 ------- 1 1.0 3.0 43 74
d 0.993036 0 5 tcp 1040 ------- 1 1.0 3.0 43 74
r 0.993292 5 3 tcp 1040 ------- 1 1.0 3.0 34 65
h 0.993292 3 5 ack 40 ------- 1 3.0 1.0 34 85
+ 0.997448 1 5 tcp 1040 ------- 1 1.0 3.0 48 79
- 0.997448 1 5 tcp 1040 ------- 1 1.0 3.0 44 75
d 0.997452 4 5 tcp 1040 ------- 1 1.0 3.0 44 75
d 0.997452 2 5 tcp 1040 ------- 1 1.0 3.0 44 75
d 0.997452 0 5 tcp 1040 ------- 1 1.0 3.0 44 75
r 0.997708 5 3 tcp 1040 ------- 1 1.0 3.0 35 66
h 0.997708 3 5 ack 40 ------- 1 3.0 1.0 35 86
+ 1.001864 1 5 tcp 1040 ------- 1 1.0 3.0 49 80
- 1.001864 1 5 tcp 1040 ------- 1 1.0 3.0 45 76
d 1.001868 4 5 tcp 1040 ------- 1 1.0 3.0 45 76
d 1.001868 2 5 tcp 1040 ------- 1 1.0 3.0 45 76
d 1.001868 0 5 tcp 1040 ------- 1 1.0 3.0 45 76
r 1.002124 5 3 tcp 1040 ------- 1 1.0 3.0 36 67
h 1.002124 3 5 ack 40 ------- 1 3.0 1.0 36 87
+ 1.00628 1 5 tcp 1040 ------- 1 1.0 3.0 50 81
- 1.00628 1 5 tcp 1040 ------- 1 1.0 3.0 46 77
d 1.006284 4 5 tcp 1040 ------- 1 1.0 3.0 46 77
d 1.006284 2 5 tcp 1040 ------- 1 1.0 3.0 46 77
d 1.006284 0 5 tcp 1040 ------- 1 1.0 3.0 46 77
r 1.00654 5 3 tcp 1040 ------- 1 1.0 3.0 37 68
h 1.00654 3 5 ack 40 ------- 1 3.0 1.0 37 88
- 1.010696 1 5 tcp 1040 ------- 1 1.0 3.0 47 78
d 1.0107 4 5 tcp 1040 ------- 1 1.0 3.0 47 78
d 1.0107 2 5 tcp 1040 ------- 1 1.0 3.0 47 78
d 1.0107 0 5 tcp 1040 ------- 1 1.0 3.0 47 78
r 1.010956 5 3 tcp 1040 ------- 1 1.0 3.0 38 69
h 1.010956 3 5 ack 40 ------- 1 3.0 1.0 38 89
- 1.015112 1 5 tcp 1040 ------- 1 1.0 3.0 48 79
d 1.015116 4 5 tcp 1040 ------- 1 1.0 3.0 48 79
d 1.015116 2 5 tcp 1040 ------- 1 1.0 3.0 48 79
d 1.015116 0 5 tcp 1040 ------- 1 1.0 3.0 48 79
r 1.015372 5 3 tcp 1040 ------- 1 1.0 3.0 39 70
h 1.015372 3 5 ack 40 ------- 1 3.0 1.0 39 90
- 1.019528 1 5 tcp 1040 ------- 1 1.0 3.0 49 80
d 1.019532 4 5 tcp 1040 ------- 1 1.0 3.0 49 80
d 1.019532 2 5 tcp 1040 ------- 1 1.0 3.0 49 80
d 1.019532 0 5 tcp 1040 ------- 1 1.0 3.0 49 80
r 1.019788 5 3 tcp 1040 ------- 1 1.0 3.0 40 71
h 1.019788 3 5 ack 40 ------- 1 3.0 1.0 40 91
+ 1.020044 3 5 ack 40 ------- 1 3.0 1.0 31 82
- 1.020044 3 5 ack 40 ------- 1 3.0 1.0 31 82
d 1.020048 4 5 ack 40 ------- 1 3.0 1.0 31 82
d 1.020048 2 5 ack 40 ------- 1 3.0 1.0 31 82
d 1.020048 0 5 ack 40 ------- 1 3.0 1.0 31 82
- 1.023944 1 5 tcp 1040 ------- 1 1.0 3.0 50 81
d 1.023948 4 5 tcp 1040 ------- 1 1.0 3.0 50 81
d 1.023948 2 5 tcp 1040 ------- 1 1.0 3.0 50 81
d 1.023948 0 5 tcp 1040 ------- 1 1.0 3.0 50 81
r 1.024204 5 3 tcp 1040 ------- 1 1.0 3.0 41 72
h 1.024204 3 5 ack 40 ------- 1 3.0 1.0 41 92
+ 1.02446 3 5 ack 40 ------- 1 3.0 1.0 32 83
- 1.02446 3 5 ack 40 ------- 1 3.0 1.0 32 83
d 1.024464 4 5 ack 40 ------- 1 3.0 1.0 32 83
d 1.024464 2 5 ack 40 ------- 1 3.0 1.0 32 83
d 1.024464 0 5 ack 40 ------- 1 3.0 1.0 32 83
r 1.02862 5 3 tcp 1040 ------- 1 1.0 3.0 42 73
h 1.02862 3 5 ack 40 ------- 1 3.0 1.0 42 93
+ 1.028876 3 5 ack 40 ------- 1 3.0 1.0 33 84
- 1.028876 3 5 ack 40 ------- 1 3.0 1.0 33 84
d 1.02888 4 5 ack 40 ------- 1 3.0 1.0 33 84
d 1.02888 2 5 ack 40 ------- 1 3.0 1.0 33 84
d 1.02888 0 5 ack 40 ------- 1 3.0 1.0 33 84
r 1.033036 5 3 tcp 1040 ------- 1 1.0 3.0 43 74
h 1.033036 3 5 ack 40 ------- 1 3.0 1.0 43 94
+ 1.033292 3 5 ack 40 ------- 1 3.0 1.0 34 85
- 1.033292 3 5 ack 40 ------- 1 3.0 1.0 34 85
d 1.033296 4 5 ack 40 ------- 1 3.0 1.0 34 85
d 1.033296 2 5 ack 40 ------- 1 3.0 1.0 34 85
d 1.033296 0 5 ack 40 ------- 1 3.0 1.0 34 85
r 1.037452 5 3 tcp 1040 ------- 1 1.0 3.0 44 75
h 1.037452 3 5 ack 40 ------- 1 3.0 1.0 44 95
+ 1.037708 3 5 ack 40 ------- 1 3.0 1.0 35 86
- 1.037708 3 5 ack 40 ------- 1 3.0 1.0 35 86
d 1.037712 4 5 ack 40 ------- 1 3.0 1.0 35 86
d 1.037712 2 5 ack 40 ------- 1 3.0 1.0 35 86
d 1.037712 0 5 ack 40 ------- 1 3.0 1.0 35 86
r 1.041868 5 3 tcp 1040 ------- 1 1.0 3.0 45 76
h 1.041868 3 5 ack 40 ------- 1 3.0 1.0 45 96
+ 1.042124 3 5 ack 40 ------- 1 3.0 1.0 36 87
- 1.042124 3 5 ack 40 ------- 1 3.0 1.0 36 87
d 1.042128 4 5 ack 40 ------- 1 3.0 1.0 36 87
d 1.042128 2 5 ack 40 ------- 1 3.0 1.0 36 87
d 1.042128 0 5 ack 40 ------- 1 3.0 1.0 36 87
r 1.046284 5 3 tcp 1040 ------- 1 1.0 3.0 46 77
h 1.046284 3 5 ack 40 ------- 1 3.0 1.0 46 97
+ 1.04654 3 5 ack 40 ------- 1 3.0 1.0 37 88
- 1.04654 3 5 ack 40 ------- 1 3.0 1.0 37 88
d 1.046544 4 5 ack 40 ------- 1 3.0 1.0 37 88
d 1.046544 2 5 ack 40 ------- 1 3.0 1.0 37 88
d 1.046544 0 5 ack 40 ------- 1 3.0 1.0 37 88
r 1.0507 5 3 tcp 1040 ------- 1 1.0 3.0 47 78
h 1.0507 3 5 ack 40 ------- 1 3.0 1.0 47 98
+ 1.050956 3 5 ack 40 ------- 1 3.0 1.0 38 89
- 1.050956 3 5 ack 40 ------- 1 3.0 1.0 38 89
d 1.05096 4 5 ack 40 ------- 1 3.0 1.0 38 89
d 1.05096 2 5 ack 40 ------- 1 3.0 1.0 38 89
d 1.05096 0 5 ack 40 ------- 1 3.0 1.0 38 89
r 1.055116 5 3 tcp 1040 ------- 1 1.0 3.0 48 79
h 1.055116 3 5 ack 40 ------- 1 3.0 1.0 48 99
+ 1.055372 3 5 ack 40 ------- 1 3.0 1.0 39 90
- 1.055372 3 5 ack 40 ------- 1 3.0 1.0 39 90
d 1.055376 4 5 ack 40 ------- 1 3.0 1.0 39 90
d 1.055376 2 5 ack 40 ------- 1 3.0 1.0 39 90
d 1.055376 0 5 ack 40 ------- 1 3.0 1.0 39 90
r 1.059532 5 3 tcp 1040 ------- 1 1.0 3.0 49 80
h 1.059532 3 5 ack 40 ------- 1 3.0 1.0 49 100
+ 1.059788 3 5 ack 40 ------- 1 3.0 1.0 40 91
- 1.059788 3 5 ack 40 ------- 1 3.0 1.0 40 91
d 1.059792 4 5 ack 40 ------- 1 3.0 1.0 40 91
d 1.059792 2 5 ack 40 ------- 1 3.0 1.0 40 91
d 1.059792 0 5 ack 40 ------- 1 3.0 1.0 40 91
r 1.060048 5 1 ack 40 ------- 1 3.0 1.0 31 82
h 1.060048 1 5 tcp 1040 ------- 1 1.0 3.0 51 101