+ 0.1 0 2 tcp 40 ------- 0 0.0 4.0 0 0
- 0.1 0 2 tcp 40 ------- 0 0.0 4.0 0 0
+ 0.1 1 2 cbr 210 ------- 0 1.0 5.0 0 1
- 0.1 1 2 cbr 210 ------- 0 1.0 5.0 0 1
+ 0.10375 1 2 cbr 210 ------- 0 1.0 5.0 1 2
- 0.10375 1 2 cbr 210 ------- 0 1.0 5.0 1 2
+ 0.1075 1 2 cbr 210 ------- 0 1.0 5.0 2 3
- 0.1075 1 2 cbr 210 ------- 0 1.0 5.0 2 3
r 0.11032 0 2 tcp 40 ------- 0 0.0 4.0 0 0
+ 0.11032 2 3 tcp 40 ------- 0 0.0 4.0 0 0
- 0.11032 2 3 tcp 40 ------- 0 0.0 4.0 0 0
+ 0.11125 1 2 cbr 210 ------- 0 1.0 5.0 3 4
- 0.11125 1 2 cbr 210 ------- 0 1.0 5.0 3 4
r 0.11168 1 2 cbr 210 ------- 0 1.0 5.0 0 1
+ 0.11168 2 3 cbr 210 ------- 0 1.0 5.0 0 1
- 0.11168 2 3 cbr 210 ------- 0 1.0 5.0 0 1
+ 0.115 1 2 cbr 210 ------- 0 1.0 5.0 4 5
- 0.115 1 2 cbr 210 ------- 0 1.0 5.0 4 5
r 0.11543 1 2 cbr 210 ------- 0 1.0 5.0 1 2
+ 0.11543 2 3 cbr 210 ------- 0 1.0 5.0 1 2
- 0.11543 2 3 cbr 210 ------- 0 1.0 5.0 1 2
+ 0.11875 1 2 cbr 210 ------- 0 1.0 5.0 5 6
- 0.11875 1 2 cbr 210 ------- 0 1.0 5.0 5 6
r 0.11918 1 2 cbr 210 ------- 0 1.0 5.0 2 3
+ 0.11918 2 3 cbr 210 ------- 0 1.0 5.0 2 3
- 0.11918 2 3 cbr 210 ------- 0 1.0 5.0 2 3
r 0.12072 2 3 tcp 40 ------- 0 0.0 4.0 0 0
+ 0.12072 3 4 tcp 40 ------- 0 0.0 4.0 0 0
- 0.12072 3 4 tcp 40 ------- 0 0.0 4.0 0 0
+ 0.1225 1 2 cbr 210 ------- 0 1.0 5.0 6 7
- 0.1225 1 2 cbr 210 ------- 0 1.0 5.0 6 7
r 0.12293 1 2 cbr 210 ------- 0 1.0 5.0 3 4
+ 0.12293 2 3 cbr 210 ------- 0 1.0 5.0 3 4
- 0.12293 2 3 cbr 210 ------- 0 1.0 5.0 3 4
r 0.12378 2 3 cbr 210 ------- 0 1.0 5.0 0 1
+ 0.12378 3 5 cbr 210 ------- 0 1.0 5.0 0 1
- 0.12378 3 5 cbr 210 ------- 0 1.0 5.0 0 1
+ 0.12625 1 2 cbr 210 ------- 0 1.0 5.0 7 8
- 0.12625 1 2 cbr 210 ------- 0 1.0 5.0 7 8
r 0.12668 1 2 cbr 210 ------- 0 1.0 5.0 4 5
+ 0.12668 2 3 cbr 210 ------- 0 1.0 5.0 4 5
- 0.12668 2 3 cbr 210 ------- 0 1.0 5.0 4 5
r 0.12753 2 3 cbr 210 ------- 0 1.0 5.0 1 2
+ 0.12753 3 5 cbr 210 ------- 0 1.0 5.0 1 2
- 0.12753 3 5 cbr 210 ------- 0 1.0 5.0 1 2
+ 0.13 1 2 cbr 210 ------- 0 1.0 5.0 8 9
- 0.13 1 2 cbr 210 ------- 0 1.0 5.0 8 9
r 0.13043 1 2 cbr 210 ------- 0 1.0 5.0 5 6
+ 0.13043 2 3 cbr 210 ------- 0 1.0 5.0 5 6
- 0.13043 2 3 cbr 210 ------- 0 1.0 5.0 5 6
r 0.13104 3 4 tcp 40 ------- 0 0.0 4.0 0 0
+ 0.13104 4 3 ack 40 ------- 0 4.0 0.0 0 10
- 0.13104 4 3 ack 40 ------- 0 4.0 0.0 0 10
r 0.13128 2 3 cbr 210 ------- 0 1.0 5.0 2 3
+ 0.13128 3 5 cbr 210 ------- 0 1.0 5.0 2 3
- 0.13128 3 5 cbr 210 ------- 0 1.0 5.0 2 3
+ 0.13375 1 2 cbr 210 ------- 0 1.0 5.0 9 11
- 0.13375 1 2 cbr 210 ------- 0 1.0 5.0 9 11
r 0.13418 1 2 cbr 210 ------- 0 1.0 5.0 6 7
+ 0.13418 2 3 cbr 210 ------- 0 1.0 5.0 6 7
- 0.13418 2 3 cbr 210 ------- 0 1.0 5.0 6 7
r 0.13503 2 3 cbr 210 ------- 0 1.0 5.0 3 4
+ 0.13503 3 5 cbr 210 ------- 0 1.0 5.0 3 4
- 0.13503 3 5 cbr 210 ------- 0 1.0 5.0 3 4
r 0.13546 3 5 cbr 210 ------- 0 1.0 5.0 0 1
+ 0.1375 1 2 cbr 210 ------- 0 1.0 5.0 10 12
- 0.1375 1 2 cbr 210 ------- 0 1.0 5.0 10 12
r 0.13793 1 2 cbr 210 ------- 0 1.0 5.0 7 8
+ 0.13793 2 3 cbr 210 ------- 0 1.0 5.0 7 8
- 0.13793 2 3 cbr 210 ------- 0 1.0 5.0 7 8
r 0.13878 2 3 cbr 210 ------- 0 1.0 5.0 4 5
+ 0.13878 3 5 cbr 210 ------- 0 1.0 5.0 4 5
- 0.13878 3 5 cbr 210 ------- 0 1.0 5.0 4 5
r 0.13921 3 5 cbr 210 ------- 0 1.0 5.0 1 2
+ 0.14125 1 2 cbr 210 ------- 0 1.0 5.0 11 13
- 0.14125 1 2 cbr 210 ------- 0 1.0 5.0 11 13
r 0.14136 4 3 ack 40 ------- 0 4.0 0.0 0 10
+ 0.14136 3 2 ack 40 ------- 0 4.0 0.0 0 10
- 0.14136 3 2 ack 40 ------- 0 4.0 0.0 0 10
r 0.14168 1 2 cbr 210 ------- 0 1.0 5.0 8 9
+ 0.14168 2 3 cbr 210 ------- 0 1.0 5.0 8 9
- 0.14168 2 3 cbr 210 ------- 0 1.0 5.0 8 9
r 0.14253 2 3 cbr 210 ------- 0 1.0 5.0 5 6
+ 0.14253 3 5 cbr 210 ------- 0 1.0 5.0 5 6
- 0.14253 3 5 cbr 210 ------- 0 1.0 5.0 5 6
r 0.14296 3 5 cbr 210 ------- 0 1.0 5.0 2 3
+ 0.145 1 2 cbr 210 ------- 0 1.0 5.0 12 14
- 0.145 1 2 cbr 210 ------- 0 1.0 5.0 12 14
r 0.14543 1 2 cbr 210 ------- 0 1.0 5.0 9 11
+ 0.14543 2 3 cbr 210 ------- 0 1.0 5.0 9 11
- 0.14543 2 3 cbr 210 ------- 0 1.0 5.0 9 11
r 0.14628 2 3 cbr 210 ------- 0 1.0 5.0 6 7
+ 0.14628 3 5 cbr 210 ------- 0 1.0 5.0 6 7
- 0.14628 3 5 cbr 210 ------- 0 1.0 5.0 6 7
r 0.14671 3 5 cbr 210 ------- 0 1.0 5.0 3 4
+ 0.14875 1 2 cbr 210 ------- 0 1.0 5.0 13 15
- 0.14875 1 2 cbr 210 ------- 0 1.0 5.0 13 15
r 0.14918 1 2 cbr 210 ------- 0 1.0 5.0 10 12
+ 0.14918 2 3 cbr 210 ------- 0 1.0 5.0 10 12
- 0.14918 2 3 cbr 210 ------- 0 1.0 5.0 10 12
r 0.15003 2 3 cbr 210 ------- 0 1.0 5.0 7 8
+ 0.15003 3 5 cbr 210 ------- 0 1.0 5.0 7 8
- 0.15003 3 5 cbr 210 ------- 0 1.0 5.0 7 8
r 0.15046 3 5 cbr 210 ------- 0 1.0 5.0 4 5
r 0.15176 3 2 ack 40 ------- 0 4.0 0.0 0 10
+ 0.15176 2 0 ack 40 ------- 0 4.0 0.0 0 10
- 0.15176 2 0 ack 40 ------- 0 4.0 0.0 0 10
+ 0.1525 1 2 cbr 210 ------- 0 1.0 5.0 14 16
- 0.1525 1 2 cbr 210 ------- 0 1.0 5.0 14 16
r 0.15293 1 2 cbr 210 ------- 0 1.0 5.0 11 13
+ 0.15293 2 3 cbr 210 ------- 0 1.0 5.0 11 13
- 0.15293 2 3 cbr 210 ------- 0 1.0 5.0 11 13
r 0.15378 2 3 cbr 210 ------- 0 1.0 5.0 8 9
+ 0.15378 3 5 cbr 210 ------- 0 1.0 5.0 8 9
- 0.15378 3 5 cbr 210 ------- 0 1.0 5.0 8 9
r 0.15421 3 5 cbr 210 ------- 0 1.0 5.0 5 6
+ 0.15625 1 2 cbr 210 ------- 0 1.0 5.0 15 17
- 0.15625 1 2 cbr 210 ------- 0 1.0 5.0 15 17
r 0.15668 1 2 cbr 210 ------- 0 1.0 5.0 12 14
+ 0.15668 2 3 cbr 210 ------- 0 1.0 5.0 12 14
- 0.15668 2 3 cbr 210 ------- 0 1.0 5.0 12 14
r 0.15753 2 3 cbr 210 ------- 0 1.0 5.0 9 11
+ 0.15753 3 5 cbr 210 ------- 0 1.0 5.0 9 11
- 0.15753 3 5 cbr 210 ------- 0 1.0 5.0 9 11
r 0.15796 3 5 cbr 210 ------- 0 1.0 5.0 6 7
+ 0.16 1 2 cbr 210 ------- 0 1.0 5.0 16 18
- 0.16 1 2 cbr 210 ------- 0 1.0 5.0 16 18
r 0.16043 1 2 cbr 210 ------- 0 1.0 5.0 13 15
+ 0.16043 2 3 cbr 210 ------- 0 1.0 5.0 13 15
- 0.16043 2 3 cbr 210 ------- 0 1.0 5.0 13 15
r 0.16128 2 3 cbr 210 ------- 0 1.0 5.0 10 12
+ 0.16128 3 5 cbr 210 ------- 0 1.0 5.0 10 12
- 0.16128 3 5 cbr 210 ------- 0 1.0 5.0 10 12
r 0.16171 3 5 cbr 210 ------- 0 1.0 5.0 7 8
r 0.16208 2 0 ack 40 ------- 0 4.0 0.0 0 10
+ 0.16208 0 2 tcp 1040 ------- 0 0.0 4.0 1 19
- 0.16208 0 2 tcp 1040 ------- 0 0.0 4.0 1 19
+ 0.16208 0 2 tcp 1040 ------- 0 0.0 4.0 2 20
+ 0.16375 1 2 cbr 210 ------- 0 1.0 5.0 17 21
- 0.16375 1 2 cbr 210 ------- 0 1.0 5.0 17 21
r 0.16418 1 2 cbr 210 ------- 0 1.0 5.0 14 16
+ 0.16418 2 3 cbr 210 ------- 0 1.0 5.0 14 16
- 0.16418 2 3 cbr 210 ------- 0 1.0 5.0 14 16
r 0.16503 2 3 cbr 210 ------- 0 1.0 5.0 11 13
+ 0.16503 3 5 cbr 210 ------- 0 1.0 5.0 11 13
- 0.16503 3 5 cbr 210 ------- 0 1.0 5.0 11 13
r 0.16546 3 5 cbr 210 ------- 0 1.0 5.0 8 9
+ 0.1675 1 2 cbr 210 ------- 0 1.0 5.0 18 22
- 0.1675 1 2 cbr 210 ------- 0 1.0 5.0 18 22
r 0.16793 1 2 cbr 210 ------- 0 1.0 5.0 15 17
+ 0.16793 2 3 cbr 210 ------- 0 1.0 5.0 15 17
- 0.16793 2 3 cbr 210 ------- 0 1.0 5.0 15 17
r 0.16878 2 3 cbr 210 ------- 0 1.0 5.0 12 14
+ 0.16878 3 5 cbr 210 ------- 0 1.0 5.0 12 14
- 0.16878 3 5 cbr 210 ------- 0 1.0 5.0 12 14
r 0.16921 3 5 cbr 210 ------- 0 1.0 5.0 9 11
- 0.1704 0 2 tcp 1040 ------- 0 0.0 4.0 2 20
+ 0.17125 1 2 cbr 210 ------- 0 1.0 5.0 19 23
- 0.17125 1 2 cbr 210 ------- 0 1.0 5.0 19 23
r 0.17168 1 2 cbr 210 ------- 0 1.0 5.0 16 18
+ 0.17168 2 3 cbr 210 ------- 0 1.0 5.0 16 18
- 0.17168 2 3 cbr 210 ------- 0 1.0 5.0 16 18
r 0.17253 2 3 cbr 210 ------- 0 1.0 5.0 13 15
+ 0.17253 3 5 cbr 210 ------- 0 1.0 5.0 13 15
- 0.17253 3 5 cbr 210 ------- 0 1.0 5.0 13 15
r 0.17296 3 5 cbr 210 ------- 0 1.0 5.0 10 12
+ 0.175 1 2 cbr 210 ------- 0 1.0 5.0 20 24
- 0.175 1 2 cbr 210 ------- 0 1.0 5.0 20 24
r 0.17543 1 2 cbr 210 ------- 0 1.0 5.0 17 21
+ 0.17543 2 3 cbr 210 ------- 0 1.0 5.0 17 21
- 0.17543 2 3 cbr 210 ------- 0 1.0 5.0 17 21
r 0.17628 2 3 cbr 210 ------- 0 1.0 5.0 14 16
+ 0.17628 3 5 cbr 210 ------- 0 1.0 5.0 14 16
- 0.17628 3 5 cbr 210 ------- 0 1.0 5.0 14 16
r 0.17671 3 5 cbr 210 ------- 0 1.0 5.0 11 13
+ 0.17875 1 2 cbr 210 ------- 0 1.0 5.0 21 25
- 0.17875 1 2 cbr 210 ------- 0 1.0 5.0 21 25
r 0.17918 1 2 cbr 210 ------- 0 1.0 5.0 18 22
+ 0.17918 2 3 cbr 210 ------- 0 1.0 5.0 18 22
- 0.17918 2 3 cbr 210 ------- 0 1.0 5.0 18 22
r 0.18003 2 3 cbr 210 ------- 0 1.0 5.0 15 17
+ 0.18003 3 5 cbr 210 ------- 0 1.0 5.0 15 17
- 0.18003 3 5 cbr 210 ------- 0 1.0 5.0 15 17
r 0.1804 0 2 tcp 1040 ------- 0 0.0 4.0 1 19
+ 0.1804 2 3 tcp 1040 ------- 0 0.0 4.0 1 19
r 0.18046 3 5 cbr 210 ------- 0 1.0 5.0 12 14
- 0.18128 2 3 tcp 1040 ------- 0 0.0 4.0 1 19
+ 0.1825 1 2 cbr 210 ------- 0 1.0 5.0 22 26
- 0.1825 1 2 cbr 210 ------- 0 1.0 5.0 22 26
r 0.18293 1 2 cbr 210 ------- 0 1.0 5.0 19 23
+ 0.18293 2 3 cbr 210 ------- 0 1.0 5.0 19 23
r 0.18378 2 3 cbr 210 ------- 0 1.0 5.0 16 18
+ 0.18378 3 5 cbr 210 ------- 0 1.0 5.0 16 18
- 0.18378 3 5 cbr 210 ------- 0 1.0 5.0 16 18
r 0.18421 3 5 cbr 210 ------- 0 1.0 5.0 13 15
+ 0.18625 1 2 cbr 210 ------- 0 1.0 5.0 23 27
- 0.18625 1 2 cbr 210 ------- 0 1.0 5.0 23 27
r 0.18668 1 2 cbr 210 ------- 0 1.0 5.0 20 24
+ 0.18668 2 3 cbr 210 ------- 0 1.0 5.0 20 24
r 0.18753 2 3 cbr 210 ------- 0 1.0 5.0 17 21
+ 0.18753 3 5 cbr 210 ------- 0 1.0 5.0 17 21
- 0.18753 3 5 cbr 210 ------- 0 1.0 5.0 17 21
r 0.18796 3 5 cbr 210 ------- 0 1.0 5.0 14 16
r 0.18872 0 2 tcp 1040 ------- 0 0.0 4.0 2 20
+ 0.18872 2 3 tcp 1040 ------- 0 0.0 4.0 2 20
+ 0.19 1 2 cbr 210 ------- 0 1.0 5.0 24 28
- 0.19 1 2 cbr 210 ------- 0 1.0 5.0 24 28
r 0.19043 1 2 cbr 210 ------- 0 1.0 5.0 21 25
+ 0.19043 2 3 cbr 210 ------- 0 1.0 5.0 21 25
r 0.19128 2 3 cbr 210 ------- 0 1.0 5.0 18 22
+ 0.19128 3 5 cbr 210 ------- 0 1.0 5.0 18 22
- 0.19128 3 5 cbr 210 ------- 0 1.0 5.0 18 22
- 0.19168 2 3 cbr 210 ------- 0 1.0 5.0 19 23
r 0.19171 3 5 cbr 210 ------- 0 1.0 5.0 15 17
+ 0.19375 1 2 cbr 210 ------- 0 1.0 5.0 25 29
- 0.19375 1 2 cbr 210 ------- 0 1.0 5.0 25 29
- 0.19378 2 3 cbr 210 ------- 0 1.0 5.0 20 24
r 0.19418 1 2 cbr 210 ------- 0 1.0 5.0 22 26
+ 0.19418 2 3 cbr 210 ------- 0 1.0 5.0 22 26
r 0.19546 3 5 cbr 210 ------- 0 1.0 5.0 16 18
- 0.19588 2 3 tcp 1040 ------- 0 0.0 4.0 2 20
+ 0.1975 1 2 cbr 210 ------- 0 1.0 5.0 26 30
- 0.1975 1 2 cbr 210 ------- 0 1.0 5.0 26 30
r 0.19793 1 2 cbr 210 ------- 0 1.0 5.0 23 27
+ 0.19793 2 3 cbr 210 ------- 0 1.0 5.0 23 27
r 0.19921 3 5 cbr 210 ------- 0 1.0 5.0 17 21
+ 0.20125 1 2 cbr 210 ------- 0 1.0 5.0 27 31
- 0.20125 1 2 cbr 210 ------- 0 1.0 5.0 27 31
r 0.20168 2 3 tcp 1040 ------- 0 0.0 4.0 1 19
+ 0.20168 3 4 tcp 1040 ------- 0 0.0 4.0 1 19
- 0.20168 3 4 tcp 1040 ------- 0 0.0 4.0 1 19
r 0.20168 1 2 cbr 210 ------- 0 1.0 5.0 24 28
+ 0.20168 2 3 cbr 210 ------- 0 1.0 5.0 24 28
r 0.20296 3 5 cbr 210 ------- 0 1.0 5.0 18 22
r 0.20378 2 3 cbr 210 ------- 0 1.0 5.0 19 23
+ 0.20378 3 5 cbr 210 ------- 0 1.0 5.0 19 23
- 0.20378 3 5 cbr 210 ------- 0 1.0 5.0 19 23
+ 0.205 1 2 cbr 210 ------- 0 1.0 5.0 28 32
- 0.205 1 2 cbr 210 ------- 0 1.0 5.0 28 32
r 0.20543 1 2 cbr 210 ------- 0 1.0 5.0 25 29
+ 0.20543 2 3 cbr 210 ------- 0 1.0 5.0 25 29
r 0.20588 2 3 cbr 210 ------- 0 1.0 5.0 20 24
+ 0.20588 3 5 cbr 210 ------- 0 1.0 5.0 20 24
- 0.20588 3 5 cbr 210 ------- 0 1.0 5.0 20 24
- 0.20628 2 3 cbr 210 ------- 0 1.0 5.0 21 25
- 0.20838 2 3 cbr 210 ------- 0 1.0 5.0 22 26
+ 0.20875 1 2 cbr 210 ------- 0 1.0 5.0 29 33
- 0.20875 1 2 cbr 210 ------- 0 1.0 5.0 29 33
r 0.20918 1 2 cbr 210 ------- 0 1.0 5.0 26 30
+ 0.20918 2 3 cbr 210 ------- 0 1.0 5.0 26 30
- 0.21048 2 3 cbr 210 ------- 0 1.0 5.0 23 27
+ 0.2125 1 2 cbr 210 ------- 0 1.0 5.0 30 34
- 0.2125 1 2 cbr 210 ------- 0 1.0 5.0 30 34
- 0.21258 2 3 cbr 210 ------- 0 1.0 5.0 24 28
r 0.21293 1 2 cbr 210 ------- 0 1.0 5.0 27 31
+ 0.21293 2 3 cbr 210 ------- 0 1.0 5.0 27 31
- 0.21468 2 3 cbr 210 ------- 0 1.0 5.0 25 29
r 0.21546 3 5 cbr 210 ------- 0 1.0 5.0 19 23
+ 0.21625 1 2 cbr 210 ------- 0 1.0 5.0 31 35
- 0.21625 1 2 cbr 210 ------- 0 1.0 5.0 31 35
r 0.21628 2 3 tcp 1040 ------- 0 0.0 4.0 2 20
+ 0.21628 3 4 tcp 1040 ------- 0 0.0 4.0 2 20
- 0.21628 3 4 tcp 1040 ------- 0 0.0 4.0 2 20
r 0.21668 1 2 cbr 210 ------- 0 1.0 5.0 28 32
+ 0.21668 2 3 cbr 210 ------- 0 1.0 5.0 28 32
- 0.21678 2 3 cbr 210 ------- 0 1.0 5.0 26 30
r 0.21756 3 5 cbr 210 ------- 0 1.0 5.0 20 24
r 0.21838 2 3 cbr 210 ------- 0 1.0 5.0 21 25
+ 0.21838 3 5 cbr 210 ------- 0 1.0 5.0 21 25
- 0.21838 3 5 cbr 210 ------- 0 1.0 5.0 21 25
- 0.21888 2 3 cbr 210 ------- 0 1.0 5.0 27 31
r 0.22 3 4 tcp 1040 ------- 0 0.0 4.0 1 19
+ 0.22 4 3 ack 40 ------- 0 4.0 0.0 1 36
- 0.22 4 3 ack 40 ------- 0 4.0 0.0 1 36
+ 0.22 1 2 cbr 210 ------- 0 1.0 5.0 32 37
- 0.22 1 2 cbr 210 ------- 0 1.0 5.0 32 37
r 0.22043 1 2 cbr 210 ------- 0 1.0 5.0 29 33
+ 0.22043 2 3 cbr 210 ------- 0 1.0 5.0 29 33
r 0.22048 2 3 cbr 210 ------- 0 1.0 5.0 22 26
+ 0.22048 3 5 cbr 210 ------- 0 1.0 5.0 22 26
- 0.22048 3 5 cbr 210 ------- 0 1.0 5.0 22 26
- 0.22098 2 3 cbr 210 ------- 0 1.0 5.0 28 32
r 0.22258 2 3 cbr 210 ------- 0 1.0 5.0 23 27
+ 0.22258 3 5 cbr 210 ------- 0 1.0 5.0 23 27
- 0.22258 3 5 cbr 210 ------- 0 1.0 5.0 23 27
- 0.22308 2 3 cbr 210 ------- 0 1.0 5.0 29 33
+ 0.22375 1 2 cbr 210 ------- 0 1.0 5.0 33 38
- 0.22375 1 2 cbr 210 ------- 0 1.0 5.0 33 38
r 0.22418 1 2 cbr 210 ------- 0 1.0 5.0 30 34
+ 0.22418 2 3 cbr 210 ------- 0 1.0 5.0 30 34
r 0.22468 2 3 cbr 210 ------- 0 1.0 5.0 24 28
+ 0.22468 3 5 cbr 210 ------- 0 1.0 5.0 24 28
- 0.22468 3 5 cbr 210 ------- 0 1.0 5.0 24 28
- 0.22518 2 3 cbr 210 ------- 0 1.0 5.0 30 34
r 0.22678 2 3 cbr 210 ------- 0 1.0 5.0 25 29
+ 0.22678 3 5 cbr 210 ------- 0 1.0 5.0 25 29
- 0.22678 3 5 cbr 210 ------- 0 1.0 5.0 25 29
+ 0.2275 1 2 cbr 210 ------- 0 1.0 5.0 34 39
- 0.2275 1 2 cbr 210 ------- 0 1.0 5.0 34 39
r 0.22793 1 2 cbr 210 ------- 0 1.0 5.0 31 35
+ 0.22793 2 3 cbr 210 ------- 0 1.0 5.0 31 35
- 0.22793 2 3 cbr 210 ------- 0 1.0 5.0 31 35
r 0.22888 2 3 cbr 210 ------- 0 1.0 5.0 26 30
+ 0.22888 3 5 cbr 210 ------- 0 1.0 5.0 26 30
- 0.22888 3 5 cbr 210 ------- 0 1.0 5.0 26 30
r 0.23006 3 5 cbr 210 ------- 0 1.0 5.0 21 25
r 0.23032 4 3 ack 40 ------- 0 4.0 0.0 1 36
+ 0.23032 3 2 ack 40 ------- 0 4.0 0.0 1 36
- 0.23032 3 2 ack 40 ------- 0 4.0 0.0 1 36
r 0.23098 2 3 cbr 210 ------- 0 1.0 5.0 27 31
+ 0.23098 3 5 cbr 210 ------- 0 1.0 5.0 27 31
- 0.23098 3 5 cbr 210 ------- 0 1.0 5.0 27 31
+ 0.23125 1 2 cbr 210 ------- 0 1.0 5.0 35 40
- 0.23125 1 2 cbr 210 ------- 0 1.0 5.0 35 40
r 0.23168 1 2 cbr 210 ------- 0 1.0 5.0 32 37
+ 0.23168 2 3 cbr 210 ------- 0 1.0 5.0 32 37
- 0.23168 2 3 cbr 210 ------- 0 1.0 5.0 32 37
r 0.23216 3 5 cbr 210 ------- 0 1.0 5.0 22 26
r 0.23308 2 3 cbr 210 ------- 0 1.0 5.0 28 32
+ 0.23308 3 5 cbr 210 ------- 0 1.0 5.0 28 32
- 0.23308 3 5 cbr 210 ------- 0 1.0 5.0 28 32
r 0.23426 3 5 cbr 210 ------- 0 1.0 5.0 23 27
r 0.2346 3 4 tcp 1040 ------- 0 0.0 4.0 2 20
+ 0.2346 4 3 ack 40 ------- 0 4.0 0.0 2 41
- 0.2346 4 3 ack 40 ------- 0 4.0 0.0 2 41
+ 0.235 1 2 cbr 210 ------- 0 1.0 5.0 36 42
- 0.235 1 2 cbr 210 ------- 0 1.0 5.0 36 42
r 0.23518 2 3 cbr 210 ------- 0 1.0 5.0 29 33
+ 0.23518 3 5 cbr 210 ------- 0 1.0 5.0 29 33
- 0.23518 3 5 cbr 210 ------- 0 1.0 5.0 29 33
r 0.23543 1 2 cbr 210 ------- 0 1.0 5.0 33 38
+ 0.23543 2 3 cbr 210 ------- 0 1.0 5.0 33 38
- 0.23543 2 3 cbr 210 ------- 0 1.0 5.0 33 38
r 0.23636 3 5 cbr 210 ------- 0 1.0 5.0 24 28
r 0.23728 2 3 cbr 210 ------- 0 1.0 5.0 30 34
+ 0.23728 3 5 cbr 210 ------- 0 1.0 5.0 30 34
- 0.23728 3 5 cbr 210 ------- 0 1.0 5.0 30 34
r 0.23846 3 5 cbr 210 ------- 0 1.0 5.0 25 29
+ 0.23875 1 2 cbr 210 ------- 0 1.0 5.0 37 43
- 0.23875 1 2 cbr 210 ------- 0 1.0 5.0 37 43
r 0.23918 1 2 cbr 210 ------- 0 1.0 5.0 34 39
+ 0.23918 2 3 cbr 210 ------- 0 1.0 5.0 34 39
- 0.23918 2 3 cbr 210 ------- 0 1.0 5.0 34 39
r 0.24003 2 3 cbr 210 ------- 0 1.0 5.0 31 35
+ 0.24003 3 5 cbr 210 ------- 0 1.0 5.0 31 35
- 0.24003 3 5 cbr 210 ------- 0 1.0 5.0 31 35
r 0.24056 3 5 cbr 210 ------- 0 1.0 5.0 26 30
r 0.24072 3 2 ack 40 ------- 0 4.0 0.0 1 36
+ 0.24072 2 0 ack 40 ------- 0 4.0 0.0 1 36
- 0.24072 2 0 ack 40 ------- 0 4.0 0.0 1 36
+ 0.2425 1 2 cbr 210 ------- 0 1.0 5.0 38 44
- 0.2425 1 2 cbr 210 ------- 0 1.0 5.0 38 44
r 0.24266 3 5 cbr 210 ------- 0 1.0 5.0 27 31
r 0.24293 1 2 cbr 210 ------- 0 1.0 5.0 35 40
+ 0.24293 2 3 cbr 210 ------- 0 1.0 5.0 35 40
- 0.24293 2 3 cbr 210 ------- 0 1.0 5.0 35 40
r 0.24378 2 3 cbr 210 ------- 0 1.0 5.0 32 37
+ 0.24378 3 5 cbr 210 ------- 0 1.0 5.0 32 37
- 0.24378 3 5 cbr 210 ------- 0 1.0 5.0 32 37
r 0.24476 3 5 cbr 210 ------- 0 1.0 5.0 28 32
r 0.24492 4 3 ack 40 ------- 0 4.0 0.0 2 41
+ 0.24492 3 2 ack 40 ------- 0 4.0 0.0 2 41
- 0.24492 3 2 ack 40 ------- 0 4.0 0.0 2 41
+ 0.24625 1 2 cbr 210 ------- 0 1.0 5.0 39 45
- 0.24625 1 2 cbr 210 ------- 0 1.0 5.0 39 45
r 0.24668 1 2 cbr 210 ------- 0 1.0 5.0 36 42
+ 0.24668 2 3 cbr 210 ------- 0 1.0 5.0 36 42
- 0.24668 2 3 cbr 210 ------- 0 1.0 5.0 36 42
r 0.24686 3 5 cbr 210 ------- 0 1.0 5.0 29 33
r 0.24753 2 3 cbr 210 ------- 0 1.0 5.0 33 38
+ 0.24753 3 5 cbr 210 ------- 0 1.0 5.0 33 38
- 0.24753 3 5 cbr 210 ------- 0 1.0 5.0 33 38
r 0.24896 3 5 cbr 210 ------- 0 1.0 5.0 30 34
+ 0.25 1 2 cbr 210 ------- 0 1.0 5.0 40 46
- 0.25 1 2 cbr 210 ------- 0 1.0 5.0 40 46
r 0.25043 1 2 cbr 210 ------- 0 1.0 5.0 37 43
+ 0.25043 2 3 cbr 210 ------- 0 1.0 5.0 37 43
- 0.25043 2 3 cbr 210 ------- 0 1.0 5.0 37 43
r 0.25104 2 0 ack 40 ------- 0 4.0 0.0 1 36
+ 0.25104 0 2 tcp 1040 ------- 0 0.0 4.0 3 47
- 0.25104 0 2 tcp 1040 ------- 0 0.0 4.0 3 47
+ 0.25104 0 2 tcp 1040 ------- 0 0.0 4.0 4 48
r 0.25128 2 3 cbr 210 ------- 0 1.0 5.0 34 39
+ 0.25128 3 5 cbr 210 ------- 0 1.0 5.0 34 39
- 0.25128 3 5 cbr 210 ------- 0 1.0 5.0 34 39
r 0.25171 3 5 cbr 210 ------- 0 1.0 5.0 31 35
+ 0.25375 1 2 cbr 210 ------- 0 1.0 5.0 41 49
- 0.25375 1 2 cbr 210 ------- 0 1.0 5.0 41 49
r 0.25418 1 2 cbr 210 ------- 0 1.0 5.0 38 44
+ 0.25418 2 3 cbr 210 ------- 0 1.0 5.0 38 44
- 0.25418 2 3 cbr 210 ------- 0 1.0 5.0 38 44
r 0.25503 2 3 cbr 210 ------- 0 1.0 5.0 35 40
+ 0.25503 3 5 cbr 210 ------- 0 1.0 5.0 35 40
- 0.25503 3 5 cbr 210 ------- 0 1.0 5.0 35 40
r 0.25532 3 2 ack 40 ------- 0 4.0 0.0 2 41
+ 0.25532 2 0 ack 40 ------- 0 4.0 0.0 2 41
- 0.25532 2 0 ack 40 ------- 0 4.0 0.0 2 41
r 0.25546 3 5 cbr 210 ------- 0 1.0 5.0 32 37
+ 0.2575 1 2 cbr 210 ------- 0 1.0 5.0 42 50
- 0.2575 1 2 cbr 210 ------- 0 1.0 5.0 42 50
r 0.25793 1 2 cbr 210 ------- 0 1.0 5.0 39 45
+ 0.25793 2 3 cbr 210 ------- 0 1.0 5.0 39 45
- 0.25793 2 3 cbr 210 ------- 0 1.0 5.0 39 45
r 0.25878 2 3 cbr 210 ------- 0 1.0 5.0 36 42
+ 0.25878 3 5 cbr 210 ------- 0 1.0 5.0 36 42
- 0.25878 3 5 cbr 210 ------- 0 1.0 5.0 36 42
r 0.25921 3 5 cbr 210 ------- 0 1.0 5.0 33 38
- 0.25936 0 2 tcp 1040 ------- 0 0.0 4.0 4 48
+ 0.26125 1 2 cbr 210 ------- 0 1.0 5.0 43 51
- 0.26125 1 2 cbr 210 ------- 0 1.0 5.0 43 51
r 0.26168 1 2 cbr 210 ------- 0 1.0 5.0 40 46
+ 0.26168 2 3 cbr 210 ------- 0 1.0 5.0 40 46
- 0.26168 2 3 cbr 210 ------- 0 1.0 5.0 40 46
r 0.26253 2 3 cbr 210 ------- 0 1.0 5.0 37 43
+ 0.26253 3 5 cbr 210 ------- 0 1.0 5.0 37 43
- 0.26253 3 5 cbr 210 ------- 0 1.0 5.0 37 43
r 0.26296 3 5 cbr 210 ------- 0 1.0 5.0 34 39
+ 0.265 1 2 cbr 210 ------- 0 1.0 5.0 44 52
- 0.265 1 2 cbr 210 ------- 0 1.0 5.0 44 52
r 0.26543 1 2 cbr 210 ------- 0 1.0 5.0 41 49
+ 0.26543 2 3 cbr 210 ------- 0 1.0 5.0 41 49
- 0.26543 2 3 cbr 210 ------- 0 1.0 5.0 41 49
r 0.26564 2 0 ack 40 ------- 0 4.0 0.0 2 41
+ 0.26564 0 2 tcp 1040 ------- 0 0.0 4.0 5 53
+ 0.26564 0 2 tcp 1040 ------- 0 0.0 4.0 6 54
r 0.26628 2 3 cbr 210 ------- 0 1.0 5.0 38 44
+ 0.26628 3 5 cbr 210 ------- 0 1.0 5.0 38 44
- 0.26628 3 5 cbr 210 ------- 0 1.0 5.0 38 44
r 0.26671 3 5 cbr 210 ------- 0 1.0 5.0 35 40
- 0.26768 0 2 tcp 1040 ------- 0 0.0 4.0 5 53
+ 0.26875 1 2 cbr 210 ------- 0 1.0 5.0 45 55
- 0.26875 1 2 cbr 210 ------- 0 1.0 5.0 45 55
r 0.26918 1 2 cbr 210 ------- 0 1.0 5.0 42 50
+ 0.26918 2 3 cbr 210 ------- 0 1.0 5.0 42 50
- 0.26918 2 3 cbr 210 ------- 0 1.0 5.0 42 50
r 0.26936 0 2 tcp 1040 ------- 0 0.0 4.0 3 47
+ 0.26936 2 3 tcp 1040 ------- 0 0.0 4.0 3 47
r 0.27003 2 3 cbr 210 ------- 0 1.0 5.0 39 45
+ 0.27003 3 5 cbr 210 ------- 0 1.0 5.0 39 45
- 0.27003 3 5 cbr 210 ------- 0 1.0 5.0 39 45
r 0.27046 3 5 cbr 210 ------- 0 1.0 5.0 36 42
- 0.27128 2 3 tcp 1040 ------- 0 0.0 4.0 3 47
+ 0.2725 1 2 cbr 210 ------- 0 1.0 5.0 46 56
- 0.2725 1 2 cbr 210 ------- 0 1.0 5.0 46 56
r 0.27293 1 2 cbr 210 ------- 0 1.0 5.0 43 51
+ 0.27293 2 3 cbr 210 ------- 0 1.0 5.0 43 51
r 0.27378 2 3 cbr 210 ------- 0 1.0 5.0 40 46
+ 0.27378 3 5 cbr 210 ------- 0 1.0 5.0 40 46
- 0.27378 3 5 cbr 210 ------- 0 1.0 5.0 40 46
r 0.27421 3 5 cbr 210 ------- 0 1.0 5.0 37 43
- 0.276 0 2 tcp 1040 ------- 0 0.0 4.0 6 54
+ 0.27625 1 2 cbr 210 ------- 0 1.0 5.0 47 57
- 0.27625 1 2 cbr 210 ------- 0 1.0 5.0 47 57
r 0.27668 1 2 cbr 210 ------- 0 1.0 5.0 44 52
+ 0.27668 2 3 cbr 210 ------- 0 1.0 5.0 44 52
r 0.27753 2 3 cbr 210 ------- 0 1.0 5.0 41 49
+ 0.27753 3 5 cbr 210 ------- 0 1.0 5.0 41 49
- 0.27753 3 5 cbr 210 ------- 0 1.0 5.0 41 49
r 0.27768 0 2 tcp 1040 ------- 0 0.0 4.0 4 48
+ 0.27768 2 3 tcp 1040 ------- 0 0.0 4.0 4 48
r 0.27796 3 5 cbr 210 ------- 0 1.0 5.0 38 44
+ 0.28 1 2 cbr 210 ------- 0 1.0 5.0 48 58
- 0.28 1 2 cbr 210 ------- 0 1.0 5.0 48 58
r 0.28043 1 2 cbr 210 ------- 0 1.0 5.0 45 55
+ 0.28043 2 3 cbr 210 ------- 0 1.0 5.0 45 55
r 0.28128 2 3 cbr 210 ------- 0 1.0 5.0 42 50
+ 0.28128 3 5 cbr 210 ------- 0 1.0 5.0 42 50
- 0.28128 3 5 cbr 210 ------- 0 1.0 5.0 42 50
- 0.28168 2 3 cbr 210 ------- 0 1.0 5.0 43 51
r 0.28171 3 5 cbr 210 ------- 0 1.0 5.0 39 45
+ 0.28375 1 2 cbr 210 ------- 0 1.0 5.0 49 59
- 0.28375 1 2 cbr 210 ------- 0 1.0 5.0 49 59
- 0.28378 2 3 cbr 210 ------- 0 1.0 5.0 44 52
r 0.28418 1 2 cbr 210 ------- 0 1.0 5.0 46 56
+ 0.28418 2 3 cbr 210 ------- 0 1.0 5.0 46 56
r 0.28546 3 5 cbr 210 ------- 0 1.0 5.0 40 46
- 0.28588 2 3 tcp 1040 ------- 0 0.0 4.0 4 48
r 0.286 0 2 tcp 1040 ------- 0 0.0 4.0 5 53
+ 0.286 2 3 tcp 1040 ------- 0 0.0 4.0 5 53
+ 0.2875 1 2 cbr 210 ------- 0 1.0 5.0 50 60
- 0.2875 1 2 cbr 210 ------- 0 1.0 5.0 50 60
r 0.28793 1 2 cbr 210 ------- 0 1.0 5.0 47 57
+ 0.28793 2 3 cbr 210 ------- 0 1.0 5.0 47 57
r 0.28921 3 5 cbr 210 ------- 0 1.0 5.0 41 49
+ 0.29125 1 2 cbr 210 ------- 0 1.0 5.0 51 61
- 0.29125 1 2 cbr 210 ------- 0 1.0 5.0 51 61
r 0.29168 1 2 cbr 210 ------- 0 1.0 5.0 48 58
+ 0.29168 2 3 cbr 210 ------- 0 1.0 5.0 48 58
r 0.29168 2 3 tcp 1040 ------- 0 0.0 4.0 3 47
+ 0.29168 3 4 tcp 1040 ------- 0 0.0 4.0 3 47
- 0.29168 3 4 tcp 1040 ------- 0 0.0 4.0 3 47
r 0.29296 3 5 cbr 210 ------- 0 1.0 5.0 42 50
r 0.29378 2 3 cbr 210 ------- 0 1.0 5.0 43 51
+ 0.29378 3 5 cbr 210 ------- 0 1.0 5.0 43 51
- 0.29378 3 5 cbr 210 ------- 0 1.0 5.0 43 51
r 0.29432 0 2 tcp 1040 ------- 0 0.0 4.0 6 54
+ 0.29432 2 3 tcp 1040 ------- 0 0.0 4.0 6 54
+ 0.295 1 2 cbr 210 ------- 0 1.0 5.0 52 62
- 0.295 1 2 cbr 210 ------- 0 1.0 5.0 52 62
r 0.29543 1 2 cbr 210 ------- 0 1.0 5.0 49 59
+ 0.29543 2 3 cbr 210 ------- 0 1.0 5.0 49 59
r 0.29588 2 3 cbr 210 ------- 0 1.0 5.0 44 52
+ 0.29588 3 5 cbr 210 ------- 0 1.0 5.0 44 52
- 0.29588 3 5 cbr 210 ------- 0 1.0 5.0 44 52
- 0.29628 2 3 cbr 210 ------- 0 1.0 5.0 45 55
- 0.29838 2 3 cbr 210 ------- 0 1.0 5.0 46 56
+ 0.29875 1 2 cbr 210 ------- 0 1.0 5.0 53 63
- 0.29875 1 2 cbr 210 ------- 0 1.0 5.0 53 63
r 0.29918 1 2 cbr 210 ------- 0 1.0 5.0 50 60
+ 0.29918 2 3 cbr 210 ------- 0 1.0 5.0 50 60
- 0.30048 2 3 tcp 1040 ------- 0 0.0 4.0 5 53
+ 0.3025 1 2 cbr 210 ------- 0 1.0 5.0 54 64
- 0.3025 1 2 cbr 210 ------- 0 1.0 5.0 54 64
r 0.30293 1 2 cbr 210 ------- 0 1.0 5.0 51 61
+ 0.30293 2 3 cbr 210 ------- 0 1.0 5.0 51 61
r 0.30546 3 5 cbr 210 ------- 0 1.0 5.0 43 51
+ 0.30625 1 2 cbr 210 ------- 0 1.0 5.0 55 65
- 0.30625 1 2 cbr 210 ------- 0 1.0 5.0 55 65
r 0.30628 2 3 tcp 1040 ------- 0 0.0 4.0 4 48
+ 0.30628 3 4 tcp 1040 ------- 0 0.0 4.0 4 48
- 0.30628 3 4 tcp 1040 ------- 0 0.0 4.0 4 48
r 0.30668 1 2 cbr 210 ------- 0 1.0 5.0 52 62
+ 0.30668 2 3 cbr 210 ------- 0 1.0 5.0 52 62
r 0.30756 3 5 cbr 210 ------- 0 1.0 5.0 44 52
r 0.30838 2 3 cbr 210 ------- 0 1.0 5.0 45 55
+ 0.30838 3 5 cbr 210 ------- 0 1.0 5.0 45 55
- 0.30838 3 5 cbr 210 ------- 0 1.0 5.0 45 55
+ 0.31 1 2 cbr 210 ------- 0 1.0 5.0 56 66
- 0.31 1 2 cbr 210 ------- 0 1.0 5.0 56 66
r 0.31 3 4 tcp 1040 ------- 0 0.0 4.0 3 47
+ 0.31 4 3 ack 40 ------- 0 4.0 0.0 3 67
- 0.31 4 3 ack 40 ------- 0 4.0 0.0 3 67
r 0.31043 1 2 cbr 210 ------- 0 1.0 5.0 53 63
+ 0.31043 2 3 cbr 210 ------- 0 1.0 5.0 53 63
r 0.31048 2 3 cbr 210 ------- 0 1.0 5.0 46 56
+ 0.31048 3 5 cbr 210 ------- 0 1.0 5.0 46 56
- 0.31048 3 5 cbr 210 ------- 0 1.0 5.0 46 56
- 0.31088 2 3 cbr 210 ------- 0 1.0 5.0 47 57
- 0.31298 2 3 cbr 210 ------- 0 1.0 5.0 48 58
+ 0.31375 1 2 cbr 210 ------- 0 1.0 5.0 57 68
- 0.31375 1 2 cbr 210 ------- 0 1.0 5.0 57 68
r 0.31418 1 2 cbr 210 ------- 0 1.0 5.0 54 64
+ 0.31418 2 3 cbr 210 ------- 0 1.0 5.0 54 64
- 0.31508 2 3 tcp 1040 ------- 0 0.0 4.0 6 54
+ 0.3175 1 2 cbr 210 ------- 0 1.0 5.0 58 69
- 0.3175 1 2 cbr 210 ------- 0 1.0 5.0 58 69
r 0.31793 1 2 cbr 210 ------- 0 1.0 5.0 55 65
+ 0.31793 2 3 cbr 210 ------- 0 1.0 5.0 55 65
r 0.32006 3 5 cbr 210 ------- 0 1.0 5.0 45 55
r 0.32032 4 3 ack 40 ------- 0 4.0 0.0 3 67
+ 0.32032 3 2 ack 40 ------- 0 4.0 0.0 3 67
- 0.32032 3 2 ack 40 ------- 0 4.0 0.0 3 67
r 0.32088 2 3 tcp 1040 ------- 0 0.0 4.0 5 53
+ 0.32088 3 4 tcp 1040 ------- 0 0.0 4.0 5 53
- 0.32088 3 4 tcp 1040 ------- 0 0.0 4.0 5 53
+ 0.32125 1 2 cbr 210 ------- 0 1.0 5.0 59 70
- 0.32125 1 2 cbr 210 ------- 0 1.0 5.0 59 70
r 0.32168 1 2 cbr 210 ------- 0 1.0 5.0 56 66
+ 0.32168 2 3 cbr 210 ------- 0 1.0 5.0 56 66
r 0.32216 3 5 cbr 210 ------- 0 1.0 5.0 46 56
r 0.32298 2 3 cbr 210 ------- 0 1.0 5.0 47 57
+ 0.32298 3 5 cbr 210 ------- 0 1.0 5.0 47 57
- 0.32298 3 5 cbr 210 ------- 0 1.0 5.0 47 57
r 0.3246 3 4 tcp 1040 ------- 0 0.0 4.0 4 48
+ 0.3246 4 3 ack 40 ------- 0 4.0 0.0 4 71
- 0.3246 4 3 ack 40 ------- 0 4.0 0.0 4 71
+ 0.325 1 2 cbr 210 ------- 0 1.0 5.0 60 72
- 0.325 1 2 cbr 210 ------- 0 1.0 5.0 60 72
r 0.32508 2 3 cbr 210 ------- 0 1.0 5.0 48 58
+ 0.32508 3 5 cbr 210 ------- 0 1.0 5.0 48 58
- 0.32508 3 5 cbr 210 ------- 0 1.0 5.0 48 58
r 0.32543 1 2 cbr 210 ------- 0 1.0 5.0 57 68
+ 0.32543 2 3 cbr 210 ------- 0 1.0 5.0 57 68
- 0.32548 2 3 cbr 210 ------- 0 1.0 5.0 49 59
- 0.32758 2 3 cbr 210 ------- 0 1.0 5.0 50 60
+ 0.32875 1 2 cbr 210 ------- 0 1.0 5.0 61 73
- 0.32875 1 2 cbr 210 ------- 0 1.0 5.0 61 73
r 0.32918 1 2 cbr 210 ------- 0 1.0 5.0 58 69
+ 0.32918 2 3 cbr 210 ------- 0 1.0 5.0 58 69
- 0.32968 2 3 cbr 210 ------- 0 1.0 5.0 51 61
r 0.33072 3 2 ack 40 ------- 0 4.0 0.0 3 67
+ 0.33072 2 0 ack 40 ------- 0 4.0 0.0 3 67
- 0.33072 2 0 ack 40 ------- 0 4.0 0.0 3 67
- 0.33178 2 3 cbr 210 ------- 0 1.0 5.0 52 62
+ 0.3325 1 2 cbr 210 ------- 0 1.0 5.0 62 74
- 0.3325 1 2 cbr 210 ------- 0 1.0 5.0 62 74
r 0.33293 1 2 cbr 210 ------- 0 1.0 5.0 59 70
+ 0.33293 2 3 cbr 210 ------- 0 1.0 5.0 59 70
- 0.33388 2 3 cbr 210 ------- 0 1.0 5.0 53 63
r 0.33466 3 5 cbr 210 ------- 0 1.0 5.0 47 57
r 0.33492 4 3 ack 40 ------- 0 4.0 0.0 4 71
+ 0.33492 3 2 ack 40 ------- 0 4.0 0.0 4 71
- 0.33492 3 2 ack 40 ------- 0 4.0 0.0 4 71
r 0.33548 2 3 tcp 1040 ------- 0 0.0 4.0 6 54
+ 0.33548 3 4 tcp 1040 ------- 0 0.0 4.0 6 54
- 0.33548 3 4 tcp 1040 ------- 0 0.0 4.0 6 54
- 0.33598 2 3 cbr 210 ------- 0 1.0 5.0 54 64
+ 0.33625 1 2 cbr 210 ------- 0 1.0 5.0 63 75
- 0.33625 1 2 cbr 210 ------- 0 1.0 5.0 63 75
r 0.33668 1 2 cbr 210 ------- 0 1.0 5.0 60 72
+ 0.33668 2 3 cbr 210 ------- 0 1.0 5.0 60 72
r 0.33676 3 5 cbr 210 ------- 0 1.0 5.0 48 58
r 0.33758 2 3 cbr 210 ------- 0 1.0 5.0 49 59
+ 0.33758 3 5 cbr 210 ------- 0 1.0 5.0 49 59
- 0.33758 3 5 cbr 210 ------- 0 1.0 5.0 49 59
- 0.33808 2 3 cbr 210 ------- 0 1.0 5.0 55 65
r 0.3392 3 4 tcp 1040 ------- 0 0.0 4.0 5 53
+ 0.3392 4 3 ack 40 ------- 0 4.0 0.0 5 76
- 0.3392 4 3 ack 40 ------- 0 4.0 0.0 5 76
r 0.33968 2 3 cbr 210 ------- 0 1.0 5.0 50 60
+ 0.33968 3 5 cbr 210 ------- 0 1.0 5.0 50 60
- 0.33968 3 5 cbr 210 ------- 0 1.0 5.0 50 60
+ 0.34 1 2 cbr 210 ------- 0 1.0 5.0 64 77
- 0.34 1 2 cbr 210 ------- 0 1.0 5.0 64 77
- 0.34018 2 3 cbr 210 ------- 0 1.0 5.0 56 66
r 0.34043 1 2 cbr 210 ------- 0 1.0 5.0 61 73
+ 0.34043 2 3 cbr 210 ------- 0 1.0 5.0 61 73
r 0.34104 2 0 ack 40 ------- 0 4.0 0.0 3 67
+ 0.34104 0 2 tcp 1040 ------- 0 0.0 4.0 7 78
- 0.34104 0 2 tcp 1040 ------- 0 0.0 4.0 7 78
+ 0.34104 0 2 tcp 1040 ------- 0 0.0 4.0 8 79
r 0.34178 2 3 cbr 210 ------- 0 1.0 5.0 51 61
+ 0.34178 3 5 cbr 210 ------- 0 1.0 5.0 51 61
- 0.34178 3 5 cbr 210 ------- 0 1.0 5.0 51 61
- 0.34228 2 3 cbr 210 ------- 0 1.0 5.0 57 68
+ 0.34375 1 2 cbr 210 ------- 0 1.0 5.0 65 80
- 0.34375 1 2 cbr 210 ------- 0 1.0 5.0 65 80
r 0.34388 2 3 cbr 210 ------- 0 1.0 5.0 52 62
+ 0.34388 3 5 cbr 210 ------- 0 1.0 5.0 52 62
- 0.34388 3 5 cbr 210 ------- 0 1.0 5.0 52 62
r 0.34418 1 2 cbr 210 ------- 0 1.0 5.0 62 74
+ 0.34418 2 3 cbr 210 ------- 0 1.0 5.0 62 74
- 0.34438 2 3 cbr 210 ------- 0 1.0 5.0 58 69
r 0.34532 3 2 ack 40 ------- 0 4.0 0.0 4 71
+ 0.34532 2 0 ack 40 ------- 0 4.0 0.0 4 71
- 0.34532 2 0 ack 40 ------- 0 4.0 0.0 4 71
r 0.34598 2 3 cbr 210 ------- 0 1.0 5.0 53 63
+ 0.34598 3 5 cbr 210 ------- 0 1.0 5.0 53 63
- 0.34598 3 5 cbr 210 ------- 0 1.0 5.0 53 63
- 0.34648 2 3 cbr 210 ------- 0 1.0 5.0 59 70
+ 0.3475 1 2 cbr 210 ------- 0 1.0 5.0 66 81
- 0.3475 1 2 cbr 210 ------- 0 1.0 5.0 66 81
r 0.34793 1 2 cbr 210 ------- 0 1.0 5.0 63 75
+ 0.34793 2 3 cbr 210 ------- 0 1.0 5.0 63 75
r 0.34808 2 3 cbr 210 ------- 0 1.0 5.0 54 64
+ 0.34808 3 5 cbr 210 ------- 0 1.0 5.0 54 64
- 0.34808 3 5 cbr 210 ------- 0 1.0 5.0 54 64
- 0.34858 2 3 cbr 210 ------- 0 1.0 5.0 60 72
r 0.34926 3 5 cbr 210 ------- 0 1.0 5.0 49 59
- 0.34936 0 2 tcp 1040 ------- 0 0.0 4.0 8 79
r 0.34952 4 3 ack 40 ------- 0 4.0 0.0 5 76
+ 0.34952 3 2 ack 40 ------- 0 4.0 0.0 5 76
- 0.34952 3 2 ack 40 ------- 0 4.0 0.0 5 76
r 0.35018 2 3 cbr 210 ------- 0 1.0 5.0 55 65
+ 0.35018 3 5 cbr 210 ------- 0 1.0 5.0 55 65
- 0.35018 3 5 cbr 210 ------- 0 1.0 5.0 55 65
- 0.35068 2 3 cbr 210 ------- 0 1.0 5.0 61 73
+ 0.35125 1 2 cbr 210 ------- 0 1.0 5.0 67 82
- 0.35125 1 2 cbr 210 ------- 0 1.0 5.0 67 82
r 0.35136 3 5 cbr 210 ------- 0 1.0 5.0 50 60
r 0.35168 1 2 cbr 210 ------- 0 1.0 5.0 64 77
+ 0.35168 2 3 cbr 210 ------- 0 1.0 5.0 64 77