n -t 0 -s 0 -S DLABEL -l "TCP Source(s1)" -L ""
n -t 0 -s 1 -S DLABEL -l "UDP Source(s2)" -L ""
n -t 0 -s 2 -S DLABEL -l "r1" -L ""
n -t 0 -s 3 -S DLABEL -l "r2" -L ""
n -t 0 -s 4 -S DLABEL -l "TCP Sink(s4)" -L ""
n -t 0 -s 5 -S DLABEL -l "UDP Source(s3)" -L ""
V -t * -v 1.0a5 -a 0
A -t * -n 1 -p 0 -o 0x7fffffff -c 30 -a 1
A -t * -h 1 -m 1073741823 -s 0
n -t * -a 4 -s 4 -S UP -v circle -c black -i black
n -t * -a 0 -s 0 -S UP -v circle -c black -i black
n -t * -a 5 -s 5 -S UP -v circle -c black -i black
n -t * -a 1 -s 1 -S UP -v circle -c black -i black
n -t * -a 2 -s 2 -S UP -v circle -c black -i black
n -t * -a 3 -s 3 -S UP -v circle -c black -i black
l -t * -s 0 -d 2 -S UP -r 1000000 -D 0.01 -c black
l -t * -s 1 -d 2 -S UP -r 1000000 -D 0.01 -c black
l -t * -s 2 -d 3 -S UP -r 800000 -D 0.01 -c black
l -t * -s 3 -d 4 -S UP -r 1000000 -D 0.01 -c black
l -t * -s 3 -d 5 -S UP -r 1000000 -D 0.01 -c black
+ -t 0.1 -s 0 -d 2 -p tcp -e 40 -c 0 -i 0 -a 0 -x {0.0 4.0 0 ------- null}
- -t 0.1 -s 0 -d 2 -p tcp -e 40 -c 0 -i 0 -a 0 -x {0.0 4.0 0 ------- null}
h -t 0.1 -s 0 -d 2 -p tcp -e 40 -c 0 -i 0 -a 0 -x {0.0 4.0 -1 ------- null}
+ -t 0.1 -s 1 -d 2 -p cbr -e 210 -c 0 -i 1 -a 0 -x {1.0 5.0 0 ------- null}
- -t 0.1 -s 1 -d 2 -p cbr -e 210 -c 0 -i 1 -a 0 -x {1.0 5.0 0 ------- null}
h -t 0.1 -s 1 -d 2 -p cbr -e 210 -c 0 -i 1 -a 0 -x {1.0 5.0 -1 ------- null}
+ -t 0.10375 -s 1 -d 2 -p cbr -e 210 -c 0 -i 2 -a 0 -x {1.0 5.0 1 ------- null}
- -t 0.10375 -s 1 -d 2 -p cbr -e 210 -c 0 -i 2 -a 0 -x {1.0 5.0 1 ------- null}
h -t 0.10375 -s 1 -d 2 -p cbr -e 210 -c 0 -i 2 -a 0 -x {1.0 5.0 -1 ------- null}
+ -t 0.1075 -s 1 -d 2 -p cbr -e 210 -c 0 -i 3 -a 0 -x {1.0 5.0 2 ------- null}
- -t 0.1075 -s 1 -d 2 -p cbr -e 210 -c 0 -i 3 -a 0 -x {1.0 5.0 2 ------- null}
h -t 0.1075 -s 1 -d 2 -p cbr -e 210 -c 0 -i 3 -a 0 -x {1.0 5.0 -1 ------- null}
r -t 0.11032 -s 0 -d 2 -p tcp -e 40 -c 0 -i 0 -a 0 -x {0.0 4.0 0 ------- null}
+ -t 0.11032 -s 2 -d 3 -p tcp -e 40 -c 0 -i 0 -a 0 -x {0.0 4.0 0 ------- null}
- -t 0.11032 -s 2 -d 3 -p tcp -e 40 -c 0 -i 0 -a 0 -x {0.0 4.0 0 ------- null}
h -t 0.11032 -s 2 -d 3 -p tcp -e 40 -c 0 -i 0 -a 0 -x {0.0 4.0 -1 ------- null}
+ -t 0.11125 -s 1 -d 2 -p cbr -e 210 -c 0 -i 4 -a 0 -x {1.0 5.0 3 ------- null}
- -t 0.11125 -s 1 -d 2 -p cbr -e 210 -c 0 -i 4 -a 0 -x {1.0 5.0 3 ------- null}
h -t 0.11125 -s 1 -d 2 -p cbr -e 210 -c 0 -i 4 -a 0 -x {1.0 5.0 -1 ------- null}
r -t 0.11168 -s 1 -d 2 -p cbr -e 210 -c 0 -i 1 -a 0 -x {1.0 5.0 0 ------- null}
+ -t 0.11168 -s 2 -d 3 -p cbr -e 210 -c 0 -i 1 -a 0 -x {1.0 5.0 0 ------- null}
- -t 0.11168 -s 2 -d 3 -p cbr -e 210 -c 0 -i 1 -a 0 -x {1.0 5.0 0 ------- null}
h -t 0.11168 -s 2 -d 3 -p cbr -e 210 -c 0 -i 1 -a 0 -x {1.0 5.0 -1 ------- null}
+ -t 0.115 -s 1 -d 2 -p cbr -e 210 -c 0 -i 5 -a 0 -x {1.0 5.0 4 ------- null}
- -t 0.115 -s 1 -d 2 -p cbr -e 210 -c 0 -i 5 -a 0 -x {1.0 5.0 4 ------- null}
h -t 0.115 -s 1 -d 2 -p cbr -e 210 -c 0 -i 5 -a 0 -x {1.0 5.0 -1 ------- null}
r -t 0.11543 -s 1 -d 2 -p cbr -e 210 -c 0 -i 2 -a 0 -x {1.0 5.0 1 ------- null}
+ -t 0.11543 -s 2 -d 3 -p cbr -e 210 -c 0 -i 2 -a 0 -x {1.0 5.0 1 ------- null}
- -t 0.11543 -s 2 -d 3 -p cbr -e 210 -c 0 -i 2 -a 0 -x {1.0 5.0 1 ------- null}
h -t 0.11543 -s 2 -d 3 -p cbr -e 210 -c 0 -i 2 -a 0 -x {1.0 5.0 -1 ------- null}
+ -t 0.11875 -s 1 -d 2 -p cbr -e 210 -c 0 -i 6 -a 0 -x {1.0 5.0 5 ------- null}
- -t 0.11875 -s 1 -d 2 -p cbr -e 210 -c 0 -i 6 -a 0 -x {1.0 5.0 5 ------- null}
h -t 0.11875 -s 1 -d 2 -p cbr -e 210 -c 0 -i 6 -a 0 -x {1.0 5.0 -1 ------- null}
r -t 0.11918 -s 1 -d 2 -p cbr -e 210 -c 0 -i 3 -a 0 -x {1.0 5.0 2 ------- null}
+ -t 0.11918 -s 2 -d 3 -p cbr -e 210 -c 0 -i 3 -a 0 -x {1.0 5.0 2 ------- null}
- -t 0.11918 -s 2 -d 3 -p cbr -e 210 -c 0 -i 3 -a 0 -x {1.0 5.0 2 ------- null}
h -t 0.11918 -s 2 -d 3 -p cbr -e 210 -c 0 -i 3 -a 0 -x {1.0 5.0 -1 ------- null}
r -t 0.12072 -s 2 -d 3 -p tcp -e 40 -c 0 -i 0 -a 0 -x {0.0 4.0 0 ------- null}
+ -t 0.12072 -s 3 -d 4 -p tcp -e 40 -c 0 -i 0 -a 0 -x {0.0 4.0 0 ------- null}
- -t 0.12072 -s 3 -d 4 -p tcp -e 40 -c 0 -i 0 -a 0 -x {0.0 4.0 0 ------- null}
h -t 0.12072 -s 3 -d 4 -p tcp -e 40 -c 0 -i 0 -a 0 -x {0.0 4.0 -1 ------- null}
+ -t 0.1225 -s 1 -d 2 -p cbr -e 210 -c 0 -i 7 -a 0 -x {1.0 5.0 6 ------- null}
- -t 0.1225 -s 1 -d 2 -p cbr -e 210 -c 0 -i 7 -a 0 -x {1.0 5.0 6 ------- null}
h -t 0.1225 -s 1 -d 2 -p cbr -e 210 -c 0 -i 7 -a 0 -x {1.0 5.0 -1 ------- null}
r -t 0.12293 -s 1 -d 2 -p cbr -e 210 -c 0 -i 4 -a 0 -x {1.0 5.0 3 ------- null}
+ -t 0.12293 -s 2 -d 3 -p cbr -e 210 -c 0 -i 4 -a 0 -x {1.0 5.0 3 ------- null}
- -t 0.12293 -s 2 -d 3 -p cbr -e 210 -c 0 -i 4 -a 0 -x {1.0 5.0 3 ------- null}
h -t 0.12293 -s 2 -d 3 -p cbr -e 210 -c 0 -i 4 -a 0 -x {1.0 5.0 -1 ------- null}
r -t 0.12378 -s 2 -d 3 -p cbr -e 210 -c 0 -i 1 -a 0 -x {1.0 5.0 0 ------- null}
+ -t 0.12378 -s 3 -d 5 -p cbr -e 210 -c 0 -i 1 -a 0 -x {1.0 5.0 0 ------- null}
- -t 0.12378 -s 3 -d 5 -p cbr -e 210 -c 0 -i 1 -a 0 -x {1.0 5.0 0 ------- null}
h -t 0.12378 -s 3 -d 5 -p cbr -e 210 -c 0 -i 1 -a 0 -x {1.0 5.0 -1 ------- null}
+ -t 0.12625 -s 1 -d 2 -p cbr -e 210 -c 0 -i 8 -a 0 -x {1.0 5.0 7 ------- null}
- -t 0.12625 -s 1 -d 2 -p cbr -e 210 -c 0 -i 8 -a 0 -x {1.0 5.0 7 ------- null}
h -t 0.12625 -s 1 -d 2 -p cbr -e 210 -c 0 -i 8 -a 0 -x {1.0 5.0 -1 ------- null}
r -t 0.12668 -s 1 -d 2 -p cbr -e 210 -c 0 -i 5 -a 0 -x {1.0 5.0 4 ------- null}
+ -t 0.12668 -s 2 -d 3 -p cbr -e 210 -c 0 -i 5 -a 0 -x {1.0 5.0 4 ------- null}
- -t 0.12668 -s 2 -d 3 -p cbr -e 210 -c 0 -i 5 -a 0 -x {1.0 5.0 4 ------- null}
h -t 0.12668 -s 2 -d 3 -p cbr -e 210 -c 0 -i 5 -a 0 -x {1.0 5.0 -1 ------- null}
r -t 0.12753 -s 2 -d 3 -p cbr -e 210 -c 0 -i 2 -a 0 -x {1.0 5.0 1 ------- null}
+ -t 0.12753 -s 3 -d 5 -p cbr -e 210 -c 0 -i 2 -a 0 -x {1.0 5.0 1 ------- null}
- -t 0.12753 -s 3 -d 5 -p cbr -e 210 -c 0 -i 2 -a 0 -x {1.0 5.0 1 ------- null}
h -t 0.12753 -s 3 -d 5 -p cbr -e 210 -c 0 -i 2 -a 0 -x {1.0 5.0 -1 ------- null}
+ -t 0.13 -s 1 -d 2 -p cbr -e 210 -c 0 -i 9 -a 0 -x {1.0 5.0 8 ------- null}
- -t 0.13 -s 1 -d 2 -p cbr -e 210 -c 0 -i 9 -a 0 -x {1.0 5.0 8 ------- null}
h -t 0.13 -s 1 -d 2 -p cbr -e 210 -c 0 -i 9 -a 0 -x {1.0 5.0 -1 ------- null}
r -t 0.13043 -s 1 -d 2 -p cbr -e 210 -c 0 -i 6 -a 0 -x {1.0 5.0 5 ------- null}
+ -t 0.13043 -s 2 -d 3 -p cbr -e 210 -c 0 -i 6 -a 0 -x {1.0 5.0 5 ------- null}
- -t 0.13043 -s 2 -d 3 -p cbr -e 210 -c 0 -i 6 -a 0 -x {1.0 5.0 5 ------- null}
h -t 0.13043 -s 2 -d 3 -p cbr -e 210 -c 0 -i 6 -a 0 -x {1.0 5.0 -1 ------- null}
r -t 0.13104 -s 3 -d 4 -p tcp -e 40 -c 0 -i 0 -a 0 -x {0.0 4.0 0 ------- null}
+ -t 0.13104 -s 4 -d 3 -p ack -e 40 -c 0 -i 10 -a 0 -x {4.0 0.0 0 ------- null}
- -t 0.13104 -s 4 -d 3 -p ack -e 40 -c 0 -i 10 -a 0 -x {4.0 0.0 0 ------- null}
h -t 0.13104 -s 4 -d 3 -p ack -e 40 -c 0 -i 10 -a 0 -x {4.0 0.0 -1 ------- null}
r -t 0.13128 -s 2 -d 3 -p cbr -e 210 -c 0 -i 3 -a 0 -x {1.0 5.0 2 ------- null}
+ -t 0.13128 -s 3 -d 5 -p cbr -e 210 -c 0 -i 3 -a 0 -x {1.0 5.0 2 ------- null}
- -t 0.13128 -s 3 -d 5 -p cbr -e 210 -c 0 -i 3 -a 0 -x {1.0 5.0 2 ------- null}
h -t 0.13128 -s 3 -d 5 -p cbr -e 210 -c 0 -i 3 -a 0 -x {1.0 5.0 -1 ------- null}
+ -t 0.13375 -s 1 -d 2 -p cbr -e 210 -c 0 -i 11 -a 0 -x {1.0 5.0 9 ------- null}
- -t 0.13375 -s 1 -d 2 -p cbr -e 210 -c 0 -i 11 -a 0 -x {1.0 5.0 9 ------- null}
h -t 0.13375 -s 1 -d 2 -p cbr -e 210 -c 0 -i 11 -a 0 -x {1.0 5.0 -1 ------- null}
r -t 0.13418 -s 1 -d 2 -p cbr -e 210 -c 0 -i 7 -a 0 -x {1.0 5.0 6 ------- null}
+ -t 0.13418 -s 2 -d 3 -p cbr -e 210 -c 0 -i 7 -a 0 -x {1.0 5.0 6 ------- null}
- -t 0.13418 -s 2 -d 3 -p cbr -e 210 -c 0 -i 7 -a 0 -x {1.0 5.0 6 ------- null}
h -t 0.13418 -s 2 -d 3 -p cbr -e 210 -c 0 -i 7 -a 0 -x {1.0 5.0 -1 ------- null}
r -t 0.13503 -s 2 -d 3 -p cbr -e 210 -c 0 -i 4 -a 0 -x {1.0 5.0 3 ------- null}
+ -t 0.13503 -s 3 -d 5 -p cbr -e 210 -c 0 -i 4 -a 0 -x {1.0 5.0 3 ------- null}
- -t 0.13503 -s 3 -d 5 -p cbr -e 210 -c 0 -i 4 -a 0 -x {1.0 5.0 3 ------- null}
h -t 0.13503 -s 3 -d 5 -p cbr -e 210 -c 0 -i 4 -a 0 -x {1.0 5.0 -1 ------- null}
r -t 0.13546 -s 3 -d 5 -p cbr -e 210 -c 0 -i 1 -a 0 -x {1.0 5.0 0 ------- null}
+ -t 0.1375 -s 1 -d 2 -p cbr -e 210 -c 0 -i 12 -a 0 -x {1.0 5.0 10 ------- null}
- -t 0.1375 -s 1 -d 2 -p cbr -e 210 -c 0 -i 12 -a 0 -x {1.0 5.0 10 ------- null}
h -t 0.1375 -s 1 -d 2 -p cbr -e 210 -c 0 -i 12 -a 0 -x {1.0 5.0 -1 ------- null}
r -t 0.13793 -s 1 -d 2 -p cbr -e 210 -c 0 -i 8 -a 0 -x {1.0 5.0 7 ------- null}
+ -t 0.13793 -s 2 -d 3 -p cbr -e 210 -c 0 -i 8 -a 0 -x {1.0 5.0 7 ------- null}
- -t 0.13793 -s 2 -d 3 -p cbr -e 210 -c 0 -i 8 -a 0 -x {1.0 5.0 7 ------- null}
h -t 0.13793 -s 2 -d 3 -p cbr -e 210 -c 0 -i 8 -a 0 -x {1.0 5.0 -1 ------- null}
r -t 0.13878 -s 2 -d 3 -p cbr -e 210 -c 0 -i 5 -a 0 -x {1.0 5.0 4 ------- null}
+ -t 0.13878 -s 3 -d 5 -p cbr -e 210 -c 0 -i 5 -a 0 -x {1.0 5.0 4 ------- null}
- -t 0.13878 -s 3 -d 5 -p cbr -e 210 -c 0 -i 5 -a 0 -x {1.0 5.0 4 ------- null}
h -t 0.13878 -s 3 -d 5 -p cbr -e 210 -c 0 -i 5 -a 0 -x {1.0 5.0 -1 ------- null}
r -t 0.13921 -s 3 -d 5 -p cbr -e 210 -c 0 -i 2 -a 0 -x {1.0 5.0 1 ------- null}
+ -t 0.14125 -s 1 -d 2 -p cbr -e 210 -c 0 -i 13 -a 0 -x {1.0 5.0 11 ------- null}
- -t 0.14125 -s 1 -d 2 -p cbr -e 210 -c 0 -i 13 -a 0 -x {1.0 5.0 11 ------- null}
h -t 0.14125 -s 1 -d 2 -p cbr -e 210 -c 0 -i 13 -a 0 -x {1.0 5.0 -1 ------- null}
r -t 0.14136 -s 4 -d 3 -p ack -e 40 -c 0 -i 10 -a 0 -x {4.0 0.0 0 ------- null}
+ -t 0.14136 -s 3 -d 2 -p ack -e 40 -c 0 -i 10 -a 0 -x {4.0 0.0 0 ------- null}
- -t 0.14136 -s 3 -d 2 -p ack -e 40 -c 0 -i 10 -a 0 -x {4.0 0.0 0 ------- null}
h -t 0.14136 -s 3 -d 2 -p ack -e 40 -c 0 -i 10 -a 0 -x {4.0 0.0 -1 ------- null}
r -t 0.14168 -s 1 -d 2 -p cbr -e 210 -c 0 -i 9 -a 0 -x {1.0 5.0 8 ------- null}
+ -t 0.14168 -s 2 -d 3 -p cbr -e 210 -c 0 -i 9 -a 0 -x {1.0 5.0 8 ------- null}
- -t 0.14168 -s 2 -d 3 -p cbr -e 210 -c 0 -i 9 -a 0 -x {1.0 5.0 8 ------- null}
h -t 0.14168 -s 2 -d 3 -p cbr -e 210 -c 0 -i 9 -a 0 -x {1.0 5.0 -1 ------- null}
r -t 0.14253 -s 2 -d 3 -p cbr -e 210 -c 0 -i 6 -a 0 -x {1.0 5.0 5 ------- null}
+ -t 0.14253 -s 3 -d 5 -p cbr -e 210 -c 0 -i 6 -a 0 -x {1.0 5.0 5 ------- null}
- -t 0.14253 -s 3 -d 5 -p cbr -e 210 -c 0 -i 6 -a 0 -x {1.0 5.0 5 ------- null}
h -t 0.14253 -s 3 -d 5 -p cbr -e 210 -c 0 -i 6 -a 0 -x {1.0 5.0 -1 ------- null}
r -t 0.14296 -s 3 -d 5 -p cbr -e 210 -c 0 -i 3 -a 0 -x {1.0 5.0 2 ------- null}
+ -t 0.145 -s 1 -d 2 -p cbr -e 210 -c 0 -i 14 -a 0 -x {1.0 5.0 12 ------- null}
- -t 0.145 -s 1 -d 2 -p cbr -e 210 -c 0 -i 14 -a 0 -x {1.0 5.0 12 ------- null}
h -t 0.145 -s 1 -d 2 -p cbr -e 210 -c 0 -i 14 -a 0 -x {1.0 5.0 -1 ------- null}
r -t 0.14543 -s 1 -d 2 -p cbr -e 210 -c 0 -i 11 -a 0 -x {1.0 5.0 9 ------- null}
+ -t 0.14543 -s 2 -d 3 -p cbr -e 210 -c 0 -i 11 -a 0 -x {1.0 5.0 9 ------- null}
- -t 0.14543 -s 2 -d 3 -p cbr -e 210 -c 0 -i 11 -a 0 -x {1.0 5.0 9 ------- null}
h -t 0.14543 -s 2 -d 3 -p cbr -e 210 -c 0 -i 11 -a 0 -x {1.0 5.0 -1 ------- null}
r -t 0.14628 -s 2 -d 3 -p cbr -e 210 -c 0 -i 7 -a 0 -x {1.0 5.0 6 ------- null}
+ -t 0.14628 -s 3 -d 5 -p cbr -e 210 -c 0 -i 7 -a 0 -x {1.0 5.0 6 ------- null}
- -t 0.14628 -s 3 -d 5 -p cbr -e 210 -c 0 -i 7 -a 0 -x {1.0 5.0 6 ------- null}
h -t 0.14628 -s 3 -d 5 -p cbr -e 210 -c 0 -i 7 -a 0 -x {1.0 5.0 -1 ------- null}
r -t 0.14671 -s 3 -d 5 -p cbr -e 210 -c 0 -i 4 -a 0 -x {1.0 5.0 3 ------- null}
+ -t 0.14875 -s 1 -d 2 -p cbr -e 210 -c 0 -i 15 -a 0 -x {1.0 5.0 13 ------- null}
- -t 0.14875 -s 1 -d 2 -p cbr -e 210 -c 0 -i 15 -a 0 -x {1.0 5.0 13 ------- null}
h -t 0.14875 -s 1 -d 2 -p cbr -e 210 -c 0 -i 15 -a 0 -x {1.0 5.0 -1 ------- null}
r -t 0.14918 -s 1 -d 2 -p cbr -e 210 -c 0 -i 12 -a 0 -x {1.0 5.0 10 ------- null}
+ -t 0.14918 -s 2 -d 3 -p cbr -e 210 -c 0 -i 12 -a 0 -x {1.0 5.0 10 ------- null}
- -t 0.14918 -s 2 -d 3 -p cbr -e 210 -c 0 -i 12 -a 0 -x {1.0 5.0 10 ------- null}
h -t 0.14918 -s 2 -d 3 -p cbr -e 210 -c 0 -i 12 -a 0 -x {1.0 5.0 -1 ------- null}
r -t 0.15003 -s 2 -d 3 -p cbr -e 210 -c 0 -i 8 -a 0 -x {1.0 5.0 7 ------- null}
+ -t 0.15003 -s 3 -d 5 -p cbr -e 210 -c 0 -i 8 -a 0 -x {1.0 5.0 7 ------- null}
- -t 0.15003 -s 3 -d 5 -p cbr -e 210 -c 0 -i 8 -a 0 -x {1.0 5.0 7 ------- null}
h -t 0.15003 -s 3 -d 5 -p cbr -e 210 -c 0 -i 8 -a 0 -x {1.0 5.0 -1 ------- null}
r -t 0.15046 -s 3 -d 5 -p cbr -e 210 -c 0 -i 5 -a 0 -x {1.0 5.0 4 ------- null}
r -t 0.15176 -s 3 -d 2 -p ack -e 40 -c 0 -i 10 -a 0 -x {4.0 0.0 0 ------- null}
+ -t 0.15176 -s 2 -d 0 -p ack -e 40 -c 0 -i 10 -a 0 -x {4.0 0.0 0 ------- null}
- -t 0.15176 -s 2 -d 0 -p ack -e 40 -c 0 -i 10 -a 0 -x {4.0 0.0 0 ------- null}
h -t 0.15176 -s 2 -d 0 -p ack -e 40 -c 0 -i 10 -a 0 -x {4.0 0.0 -1 ------- null}
+ -t 0.1525 -s 1 -d 2 -p cbr -e 210 -c 0 -i 16 -a 0 -x {1.0 5.0 14 ------- null}
- -t 0.1525 -s 1 -d 2 -p cbr -e 210 -c 0 -i 16 -a 0 -x {1.0 5.0 14 ------- null}
h -t 0.1525 -s 1 -d 2 -p cbr -e 210 -c 0 -i 16 -a 0 -x {1.0 5.0 -1 ------- null}
r -t 0.15293 -s 1 -d 2 -p cbr -e 210 -c 0 -i 13 -a 0 -x {1.0 5.0 11 ------- null}
+ -t 0.15293 -s 2 -d 3 -p cbr -e 210 -c 0 -i 13 -a 0 -x {1.0 5.0 11 ------- null}
- -t 0.15293 -s 2 -d 3 -p cbr -e 210 -c 0 -i 13 -a 0 -x {1.0 5.0 11 ------- null}
h -t 0.15293 -s 2 -d 3 -p cbr -e 210 -c 0 -i 13 -a 0 -x {1.0 5.0 -1 ------- null}
r -t 0.15378 -s 2 -d 3 -p cbr -e 210 -c 0 -i 9 -a 0 -x {1.0 5.0 8 ------- null}
+ -t 0.15378 -s 3 -d 5 -p cbr -e 210 -c 0 -i 9 -a 0 -x {1.0 5.0 8 ------- null}
- -t 0.15378 -s 3 -d 5 -p cbr -e 210 -c 0 -i 9 -a 0 -x {1.0 5.0 8 ------- null}
h -t 0.15378 -s 3 -d 5 -p cbr -e 210 -c 0 -i 9 -a 0 -x {1.0 5.0 -1 ------- null}
r -t 0.15421 -s 3 -d 5 -p cbr -e 210 -c 0 -i 6 -a 0 -x {1.0 5.0 5 ------- null}
+ -t 0.15625 -s 1 -d 2 -p cbr -e 210 -c 0 -i 17 -a 0 -x {1.0 5.0 15 ------- null}
- -t 0.15625 -s 1 -d 2 -p cbr -e 210 -c 0 -i 17 -a 0 -x {1.0 5.0 15 ------- null}
h -t 0.15625 -s 1 -d 2 -p cbr -e 210 -c 0 -i 17 -a 0 -x {1.0 5.0 -1 ------- null}
r -t 0.15668 -s 1 -d 2 -p cbr -e 210 -c 0 -i 14 -a 0 -x {1.0 5.0 12 ------- null}
+ -t 0.15668 -s 2 -d 3 -p cbr -e 210 -c 0 -i 14 -a 0 -x {1.0 5.0 12 ------- null}
- -t 0.15668 -s 2 -d 3 -p cbr -e 210 -c 0 -i 14 -a 0 -x {1.0 5.0 12 ------- null}
h -t 0.15668 -s 2 -d 3 -p cbr -e 210 -c 0 -i 14 -a 0 -x {1.0 5.0 -1 ------- null}
r -t 0.15753 -s 2 -d 3 -p cbr -e 210 -c 0 -i 11 -a 0 -x {1.0 5.0 9 ------- null}
+ -t 0.15753 -s 3 -d 5 -p cbr -e 210 -c 0 -i 11 -a 0 -x {1.0 5.0 9 ------- null}
- -t 0.15753 -s 3 -d 5 -p cbr -e 210 -c 0 -i 11 -a 0 -x {1.0 5.0 9 ------- null}
h -t 0.15753 -s 3 -d 5 -p cbr -e 210 -c 0 -i 11 -a 0 -x {1.0 5.0 -1 ------- null}
r -t 0.15796 -s 3 -d 5 -p cbr -e 210 -c 0 -i 7 -a 0 -x {1.0 5.0 6 ------- null}
+ -t 0.16 -s 1 -d 2 -p cbr -e 210 -c 0 -i 18 -a 0 -x {1.0 5.0 16 ------- null}
- -t 0.16 -s 1 -d 2 -p cbr -e 210 -c 0 -i 18 -a 0 -x {1.0 5.0 16 ------- null}
h -t 0.16 -s 1 -d 2 -p cbr -e 210 -c 0 -i 18 -a 0 -x {1.0 5.0 -1 ------- null}
r -t 0.16043 -s 1 -d 2 -p cbr -e 210 -c 0 -i 15 -a 0 -x {1.0 5.0 13 ------- null}
+ -t 0.16043 -s 2 -d 3 -p cbr -e 210 -c 0 -i 15 -a 0 -x {1.0 5.0 13 ------- null}
- -t 0.16043 -s 2 -d 3 -p cbr -e 210 -c 0 -i 15 -a 0 -x {1.0 5.0 13 ------- null}
h -t 0.16043 -s 2 -d 3 -p cbr -e 210 -c 0 -i 15 -a 0 -x {1.0 5.0 -1 ------- null}
r -t 0.16128 -s 2 -d 3 -p cbr -e 210 -c 0 -i 12 -a 0 -x {1.0 5.0 10 ------- null}
+ -t 0.16128 -s 3 -d 5 -p cbr -e 210 -c 0 -i 12 -a 0 -x {1.0 5.0 10 ------- null}
- -t 0.16128 -s 3 -d 5 -p cbr -e 210 -c 0 -i 12 -a 0 -x {1.0 5.0 10 ------- null}
h -t 0.16128 -s 3 -d 5 -p cbr -e 210 -c 0 -i 12 -a 0 -x {1.0 5.0 -1 ------- null}
r -t 0.16171 -s 3 -d 5 -p cbr -e 210 -c 0 -i 8 -a 0 -x {1.0 5.0 7 ------- null}
r -t 0.16208 -s 2 -d 0 -p ack -e 40 -c 0 -i 10 -a 0 -x {4.0 0.0 0 ------- null}
+ -t 0.16208 -s 0 -d 2 -p tcp -e 1040 -c 0 -i 19 -a 0 -x {0.0 4.0 1 ------- null}
- -t 0.16208 -s 0 -d 2 -p tcp -e 1040 -c 0 -i 19 -a 0 -x {0.0 4.0 1 ------- null}
h -t 0.16208 -s 0 -d 2 -p tcp -e 1040 -c 0 -i 19 -a 0 -x {0.0 4.0 -1 ------- null}
+ -t 0.16208 -s 0 -d 2 -p tcp -e 1040 -c 0 -i 20 -a 0 -x {0.0 4.0 2 ------- null}
+ -t 0.16375 -s 1 -d 2 -p cbr -e 210 -c 0 -i 21 -a 0 -x {1.0 5.0 17 ------- null}
- -t 0.16375 -s 1 -d 2 -p cbr -e 210 -c 0 -i 21 -a 0 -x {1.0 5.0 17 ------- null}
h -t 0.16375 -s 1 -d 2 -p cbr -e 210 -c 0 -i 21 -a 0 -x {1.0 5.0 -1 ------- null}
r -t 0.16418 -s 1 -d 2 -p cbr -e 210 -c 0 -i 16 -a 0 -x {1.0 5.0 14 ------- null}
+ -t 0.16418 -s 2 -d 3 -p cbr -e 210 -c 0 -i 16 -a 0 -x {1.0 5.0 14 ------- null}
- -t 0.16418 -s 2 -d 3 -p cbr -e 210 -c 0 -i 16 -a 0 -x {1.0 5.0 14 ------- null}
h -t 0.16418 -s 2 -d 3 -p cbr -e 210 -c 0 -i 16 -a 0 -x {1.0 5.0 -1 ------- null}
r -t 0.16503 -s 2 -d 3 -p cbr -e 210 -c 0 -i 13 -a 0 -x {1.0 5.0 11 ------- null}
+ -t 0.16503 -s 3 -d 5 -p cbr -e 210 -c 0 -i 13 -a 0 -x {1.0 5.0 11 ------- null}
- -t 0.16503 -s 3 -d 5 -p cbr -e 210 -c 0 -i 13 -a 0 -x {1.0 5.0 11 ------- null}
h -t 0.16503 -s 3 -d 5 -p cbr -e 210 -c 0 -i 13 -a 0 -x {1.0 5.0 -1 ------- null}
r -t 0.16546 -s 3 -d 5 -p cbr -e 210 -c 0 -i 9 -a 0 -x {1.0 5.0 8 ------- null}
+ -t 0.1675 -s 1 -d 2 -p cbr -e 210 -c 0 -i 22 -a 0 -x {1.0 5.0 18 ------- null}
- -t 0.1675 -s 1 -d 2 -p cbr -e 210 -c 0 -i 22 -a 0 -x {1.0 5.0 18 ------- null}
h -t 0.1675 -s 1 -d 2 -p cbr -e 210 -c 0 -i 22 -a 0 -x {1.0 5.0 -1 ------- null}
r -t 0.16793 -s 1 -d 2 -p cbr -e 210 -c 0 -i 17 -a 0 -x {1.0 5.0 15 ------- null}
+ -t 0.16793 -s 2 -d 3 -p cbr -e 210 -c 0 -i 17 -a 0 -x {1.0 5.0 15 ------- null}
- -t 0.16793 -s 2 -d 3 -p cbr -e 210 -c 0 -i 17 -a 0 -x {1.0 5.0 15 ------- null}
h -t 0.16793 -s 2 -d 3 -p cbr -e 210 -c 0 -i 17 -a 0 -x {1.0 5.0 -1 ------- null}
r -t 0.16878 -s 2 -d 3 -p cbr -e 210 -c 0 -i 14 -a 0 -x {1.0 5.0 12 ------- null}
+ -t 0.16878 -s 3 -d 5 -p cbr -e 210 -c 0 -i 14 -a 0 -x {1.0 5.0 12 ------- null}
- -t 0.16878 -s 3 -d 5 -p cbr -e 210 -c 0 -i 14 -a 0 -x {1.0 5.0 12 ------- null}
h -t 0.16878 -s 3 -d 5 -p cbr -e 210 -c 0 -i 14 -a 0 -x {1.0 5.0 -1 ------- null}
r -t 0.16921 -s 3 -d 5 -p cbr -e 210 -c 0 -i 11 -a 0 -x {1.0 5.0 9 ------- null}
- -t 0.1704 -s 0 -d 2 -p tcp -e 1040 -c 0 -i 20 -a 0 -x {0.0 4.0 2 ------- null}
h -t 0.1704 -s 0 -d 2 -p tcp -e 1040 -c 0 -i 20 -a 0 -x {0.0 4.0 -1 ------- null}
+ -t 0.17125 -s 1 -d 2 -p cbr -e 210 -c 0 -i 23 -a 0 -x {1.0 5.0 19 ------- null}
- -t 0.17125 -s 1 -d 2 -p cbr -e 210 -c 0 -i 23 -a 0 -x {1.0 5.0 19 ------- null}
h -t 0.17125 -s 1 -d 2 -p cbr -e 210 -c 0 -i 23 -a 0 -x {1.0 5.0 -1 ------- null}
r -t 0.17168 -s 1 -d 2 -p cbr -e 210 -c 0 -i 18 -a 0 -x {1.0 5.0 16 ------- null}
+ -t 0.17168 -s 2 -d 3 -p cbr -e 210 -c 0 -i 18 -a 0 -x {1.0 5.0 16 ------- null}
- -t 0.17168 -s 2 -d 3 -p cbr -e 210 -c 0 -i 18 -a 0 -x {1.0 5.0 16 ------- null}
h -t 0.17168 -s 2 -d 3 -p cbr -e 210 -c 0 -i 18 -a 0 -x {1.0 5.0 -1 ------- null}
r -t 0.17253 -s 2 -d 3 -p cbr -e 210 -c 0 -i 15 -a 0 -x {1.0 5.0 13 ------- null}
+ -t 0.17253 -s 3 -d 5 -p cbr -e 210 -c 0 -i 15 -a 0 -x {1.0 5.0 13 ------- null}
- -t 0.17253 -s 3 -d 5 -p cbr -e 210 -c 0 -i 15 -a 0 -x {1.0 5.0 13 ------- null}
h -t 0.17253 -s 3 -d 5 -p cbr -e 210 -c 0 -i 15 -a 0 -x {1.0 5.0 -1 ------- null}
r -t 0.17296 -s 3 -d 5 -p cbr -e 210 -c 0 -i 12 -a 0 -x {1.0 5.0 10 ------- null}
+ -t 0.175 -s 1 -d 2 -p cbr -e 210 -c 0 -i 24 -a 0 -x {1.0 5.0 20 ------- null}
- -t 0.175 -s 1 -d 2 -p cbr -e 210 -c 0 -i 24 -a 0 -x {1.0 5.0 20 ------- null}
h -t 0.175 -s 1 -d 2 -p cbr -e 210 -c 0 -i 24 -a 0 -x {1.0 5.0 -1 ------- null}
r -t 0.17543 -s 1 -d 2 -p cbr -e 210 -c 0 -i 21 -a 0 -x {1.0 5.0 17 ------- null}
+ -t 0.17543 -s 2 -d 3 -p cbr -e 210 -c 0 -i 21 -a 0 -x {1.0 5.0 17 ------- null}
- -t 0.17543 -s 2 -d 3 -p cbr -e 210 -c 0 -i 21 -a 0 -x {1.0 5.0 17 ------- null}
h -t 0.17543 -s 2 -d 3 -p cbr -e 210 -c 0 -i 21 -a 0 -x {1.0 5.0 -1 ------- null}
r -t 0.17628 -s 2 -d 3 -p cbr -e 210 -c 0 -i 16 -a 0 -x {1.0 5.0 14 ------- null}
+ -t 0.17628 -s 3 -d 5 -p cbr -e 210 -c 0 -i 16 -a 0 -x {1.0 5.0 14 ------- null}
- -t 0.17628 -s 3 -d 5 -p cbr -e 210 -c 0 -i 16 -a 0 -x {1.0 5.0 14 ------- null}
h -t 0.17628 -s 3 -d 5 -p cbr -e 210 -c 0 -i 16 -a 0 -x {1.0 5.0 -1 ------- null}
r -t 0.17671 -s 3 -d 5 -p cbr -e 210 -c 0 -i 13 -a 0 -x {1.0 5.0 11 ------- null}
+ -t 0.17875 -s 1 -d 2 -p cbr -e 210 -c 0 -i 25 -a 0 -x {1.0 5.0 21 ------- null}
- -t 0.17875 -s 1 -d 2 -p cbr -e 210 -c 0 -i 25 -a 0 -x {1.0 5.0 21 ------- null}
h -t 0.17875 -s 1 -d 2 -p cbr -e 210 -c 0 -i 25 -a 0 -x {1.0 5.0 -1 ------- null}
r -t 0.17918 -s 1 -d 2 -p cbr -e 210 -c 0 -i 22 -a 0 -x {1.0 5.0 18 ------- null}
+ -t 0.17918 -s 2 -d 3 -p cbr -e 210 -c 0 -i 22 -a 0 -x {1.0 5.0 18 ------- null}
- -t 0.17918 -s 2 -d 3 -p cbr -e 210 -c 0 -i 22 -a 0 -x {1.0 5.0 18 ------- null}
h -t 0.17918 -s 2 -d 3 -p cbr -e 210 -c 0 -i 22 -a 0 -x {1.0 5.0 -1 ------- null}
r -t 0.18003 -s 2 -d 3 -p cbr -e 210 -c 0 -i 17 -a 0 -x {1.0 5.0 15 ------- null}
+ -t 0.18003 -s 3 -d 5 -p cbr -e 210 -c 0 -i 17 -a 0 -x {1.0 5.0 15 ------- null}
- -t 0.18003 -s 3 -d 5 -p cbr -e 210 -c 0 -i 17 -a 0 -x {1.0 5.0 15 ------- null}
h -t 0.18003 -s 3 -d 5 -p cbr -e 210 -c 0 -i 17 -a 0 -x {1.0 5.0 -1 ------- null}
r -t 0.1804 -s 0 -d 2 -p tcp -e 1040 -c 0 -i 19 -a 0 -x {0.0 4.0 1 ------- null}
+ -t 0.1804 -s 2 -d 3 -p tcp -e 1040 -c 0 -i 19 -a 0 -x {0.0 4.0 1 ------- null}
r -t 0.18046 -s 3 -d 5 -p cbr -e 210 -c 0 -i 14 -a 0 -x {1.0 5.0 12 ------- null}
- -t 0.18128 -s 2 -d 3 -p tcp -e 1040 -c 0 -i 19 -a 0 -x {0.0 4.0 1 ------- null}
h -t 0.18128 -s 2 -d 3 -p tcp -e 1040 -c 0 -i 19 -a 0 -x {0.0 4.0 -1 ------- null}
+ -t 0.1825 -s 1 -d 2 -p cbr -e 210 -c 0 -i 26 -a 0 -x {1.0 5.0 22 ------- null}
- -t 0.1825 -s 1 -d 2 -p cbr -e 210 -c 0 -i 26 -a 0 -x {1.0 5.0 22 ------- null}
h -t 0.1825 -s 1 -d 2 -p cbr -e 210 -c 0 -i 26 -a 0 -x {1.0 5.0 -1 ------- null}
r -t 0.18293 -s 1 -d 2 -p cbr -e 210 -c 0 -i 23 -a 0 -x {1.0 5.0 19 ------- null}
+ -t 0.18293 -s 2 -d 3 -p cbr -e 210 -c 0 -i 23 -a 0 -x {1.0 5.0 19 ------- null}
r -t 0.18378 -s 2 -d 3 -p cbr -e 210 -c 0 -i 18 -a 0 -x {1.0 5.0 16 ------- null}
+ -t 0.18378 -s 3 -d 5 -p cbr -e 210 -c 0 -i 18 -a 0 -x {1.0 5.0 16 ------- null}
- -t 0.18378 -s 3 -d 5 -p cbr -e 210 -c 0 -i 18 -a 0 -x {1.0 5.0 16 ------- null}
h -t 0.18378 -s 3 -d 5 -p cbr -e 210 -c 0 -i 18 -a 0 -x {1.0 5.0 -1 ------- null}
r -t 0.18421 -s 3 -d 5 -p cbr -e 210 -c 0 -i 15 -a 0 -x {1.0 5.0 13 ------- null}
+ -t 0.18625 -s 1 -d 2 -p cbr -e 210 -c 0 -i 27 -a 0 -x {1.0 5.0 23 ------- null}
- -t 0.18625 -s 1 -d 2 -p cbr -e 210 -c 0 -i 27 -a 0 -x {1.0 5.0 23 ------- null}
h -t 0.18625 -s 1 -d 2 -p cbr -e 210 -c 0 -i 27 -a 0 -x {1.0 5.0 -1 ------- null}
r -t 0.18668 -s 1 -d 2 -p cbr -e 210 -c 0 -i 24 -a 0 -x {1.0 5.0 20 ------- null}
+ -t 0.18668 -s 2 -d 3 -p cbr -e 210 -c 0 -i 24 -a 0 -x {1.0 5.0 20 ------- null}
r -t 0.18753 -s 2 -d 3 -p cbr -e 210 -c 0 -i 21 -a 0 -x {1.0 5.0 17 ------- null}
+ -t 0.18753 -s 3 -d 5 -p cbr -e 210 -c 0 -i 21 -a 0 -x {1.0 5.0 17 ------- null}
- -t 0.18753 -s 3 -d 5 -p cbr -e 210 -c 0 -i 21 -a 0 -x {1.0 5.0 17 ------- null}
h -t 0.18753 -s 3 -d 5 -p cbr -e 210 -c 0 -i 21 -a 0 -x {1.0 5.0 -1 ------- null}
r -t 0.18796 -s 3 -d 5 -p cbr -e 210 -c 0 -i 16 -a 0 -x {1.0 5.0 14 ------- null}
r -t 0.18872 -s 0 -d 2 -p tcp -e 1040 -c 0 -i 20 -a 0 -x {0.0 4.0 2 ------- null}
+ -t 0.18872 -s 2 -d 3 -p tcp -e 1040 -c 0 -i 20 -a 0 -x {0.0 4.0 2 ------- null}
+ -t 0.19 -s 1 -d 2 -p cbr -e 210 -c 0 -i 28 -a 0 -x {1.0 5.0 24 ------- null}
- -t 0.19 -s 1 -d 2 -p cbr -e 210 -c 0 -i 28 -a 0 -x {1.0 5.0 24 ------- null}
h -t 0.19 -s 1 -d 2 -p cbr -e 210 -c 0 -i 28 -a 0 -x {1.0 5.0 -1 ------- null}
r -t 0.19043 -s 1 -d 2 -p cbr -e 210 -c 0 -i 25 -a 0 -x {1.0 5.0 21 ------- null}
+ -t 0.19043 -s 2 -d 3 -p cbr -e 210 -c 0 -i 25 -a 0 -x {1.0 5.0 21 ------- null}
r -t 0.19128 -s 2 -d 3 -p cbr -e 210 -c 0 -i 22 -a 0 -x {1.0 5.0 18 ------- null}
+ -t 0.19128 -s 3 -d 5 -p cbr -e 210 -c 0 -i 22 -a 0 -x {1.0 5.0 18 ------- null}
- -t 0.19128 -s 3 -d 5 -p cbr -e 210 -c 0 -i 22 -a 0 -x {1.0 5.0 18 ------- null}
h -t 0.19128 -s 3 -d 5 -p cbr -e 210 -c 0 -i 22 -a 0 -x {1.0 5.0 -1 ------- null}
- -t 0.19168 -s 2 -d 3 -p cbr -e 210 -c 0 -i 23 -a 0 -x {1.0 5.0 19 ------- null}
h -t 0.19168 -s 2 -d 3 -p cbr -e 210 -c 0 -i 23 -a 0 -x {1.0 5.0 -1 ------- null}
r -t 0.19171 -s 3 -d 5 -p cbr -e 210 -c 0 -i 17 -a 0 -x {1.0 5.0 15 ------- null}
+ -t 0.19375 -s 1 -d 2 -p cbr -e 210 -c 0 -i 29 -a 0 -x {1.0 5.0 25 ------- null}
- -t 0.19375 -s 1 -d 2 -p cbr -e 210 -c 0 -i 29 -a 0 -x {1.0 5.0 25 ------- null}
h -t 0.19375 -s 1 -d 2 -p cbr -e 210 -c 0 -i 29 -a 0 -x {1.0 5.0 -1 ------- null}
- -t 0.19378 -s 2 -d 3 -p cbr -e 210 -c 0 -i 24 -a 0 -x {1.0 5.0 20 ------- null}
h -t 0.19378 -s 2 -d 3 -p cbr -e 210 -c 0 -i 24 -a 0 -x {1.0 5.0 -1 ------- null}
r -t 0.19418 -s 1 -d 2 -p cbr -e 210 -c 0 -i 26 -a 0 -x {1.0 5.0 22 ------- null}
+ -t 0.19418 -s 2 -d 3 -p cbr -e 210 -c 0 -i 26 -a 0 -x {1.0 5.0 22 ------- null}
r -t 0.19546 -s 3 -d 5 -p cbr -e 210 -c 0 -i 18 -a 0 -x {1.0 5.0 16 ------- null}
- -t 0.19588 -s 2 -d 3 -p tcp -e 1040 -c 0 -i 20 -a 0 -x {0.0 4.0 2 ------- null}
h -t 0.19588 -s 2 -d 3 -p tcp -e 1040 -c 0 -i 20 -a 0 -x {0.0 4.0 -1 ------- null}
+ -t 0.1975 -s 1 -d 2 -p cbr -e 210 -c 0 -i 30 -a 0 -x {1.0 5.0 26 ------- null}
- -t 0.1975 -s 1 -d 2 -p cbr -e 210 -c 0 -i 30 -a 0 -x {1.0 5.0 26 ------- null}
h -t 0.1975 -s 1 -d 2 -p cbr -e 210 -c 0 -i 30 -a 0 -x {1.0 5.0 -1 ------- null}
r -t 0.19793 -s 1 -d 2 -p cbr -e 210 -c 0 -i 27 -a 0 -x {1.0 5.0 23 ------- null}
+ -t 0.19793 -s 2 -d 3 -p cbr -e 210 -c 0 -i 27 -a 0 -x {1.0 5.0 23 ------- null}
r -t 0.19921 -s 3 -d 5 -p cbr -e 210 -c 0 -i 21 -a 0 -x {1.0 5.0 17 ------- null}
+ -t 0.20125 -s 1 -d 2 -p cbr -e 210 -c 0 -i 31 -a 0 -x {1.0 5.0 27 ------- null}
- -t 0.20125 -s 1 -d 2 -p cbr -e 210 -c 0 -i 31 -a 0 -x {1.0 5.0 27 ------- null}
h -t 0.20125 -s 1 -d 2 -p cbr -e 210 -c 0 -i 31 -a 0 -x {1.0 5.0 -1 ------- null}
r -t 0.20168 -s 2 -d 3 -p tcp -e 1040 -c 0 -i 19 -a 0 -x {0.0 4.0 1 ------- null}
+ -t 0.20168 -s 3 -d 4 -p tcp -e 1040 -c 0 -i 19 -a 0 -x {0.0 4.0 1 ------- null}
- -t 0.20168 -s 3 -d 4 -p tcp -e 1040 -c 0 -i 19 -a 0 -x {0.0 4.0 1 ------- null}
h -t 0.20168 -s 3 -d 4 -p tcp -e 1040 -c 0 -i 19 -a 0 -x {0.0 4.0 -1 ------- null}
r -t 0.20168 -s 1 -d 2 -p cbr -e 210 -c 0 -i 28 -a 0 -x {1.0 5.0 24 ------- null}
+ -t 0.20168 -s 2 -d 3 -p cbr -e 210 -c 0 -i 28 -a 0 -x {1.0 5.0 24 ------- null}
r -t 0.20296 -s 3 -d 5 -p cbr -e 210 -c 0 -i 22 -a 0 -x {1.0 5.0 18 ------- null}
r -t 0.20378 -s 2 -d 3 -p cbr -e 210 -c 0 -i 23 -a 0 -x {1.0 5.0 19 ------- null}
+ -t 0.20378 -s 3 -d 5 -p cbr -e 210 -c 0 -i 23 -a 0 -x {1.0 5.0 19 ------- null}
- -t 0.20378 -s 3 -d 5 -p cbr -e 210 -c 0 -i 23 -a 0 -x {1.0 5.0 19 ------- null}
h -t 0.20378 -s 3 -d 5 -p cbr -e 210 -c 0 -i 23 -a 0 -x {1.0 5.0 -1 ------- null}
+ -t 0.205 -s 1 -d 2 -p cbr -e 210 -c 0 -i 32 -a 0 -x {1.0 5.0 28 ------- null}
- -t 0.205 -s 1 -d 2 -p cbr -e 210 -c 0 -i 32 -a 0 -x {1.0 5.0 28 ------- null}
h -t 0.205 -s 1 -d 2 -p cbr -e 210 -c 0 -i 32 -a 0 -x {1.0 5.0 -1 ------- null}
r -t 0.20543 -s 1 -d 2 -p cbr -e 210 -c 0 -i 29 -a 0 -x {1.0 5.0 25 ------- null}
+ -t 0.20543 -s 2 -d 3 -p cbr -e 210 -c 0 -i 29 -a 0 -x {1.0 5.0 25 ------- null}
r -t 0.20588 -s 2 -d 3 -p cbr -e 210 -c 0 -i 24 -a 0 -x {1.0 5.0 20 ------- null}
+ -t 0.20588 -s 3 -d 5 -p cbr -e 210 -c 0 -i 24 -a 0 -x {1.0 5.0 20 ------- null}
- -t 0.20588 -s 3 -d 5 -p cbr -e 210 -c 0 -i 24 -a 0 -x {1.0 5.0 20 ------- null}
h -t 0.20588 -s 3 -d 5 -p cbr -e 210 -c 0 -i 24 -a 0 -x {1.0 5.0 -1 ------- null}
- -t 0.20628 -s 2 -d 3 -p cbr -e 210 -c 0 -i 25 -a 0 -x {1.0 5.0 21 ------- null}
h -t 0.20628 -s 2 -d 3 -p cbr -e 210 -c 0 -i 25 -a 0 -x {1.0 5.0 -1 ------- null}
- -t 0.20838 -s 2 -d 3 -p cbr -e 210 -c 0 -i 26 -a 0 -x {1.0 5.0 22 ------- null}
h -t 0.20838 -s 2 -d 3 -p cbr -e 210 -c 0 -i 26 -a 0 -x {1.0 5.0 -1 ------- null}
+ -t 0.20875 -s 1 -d 2 -p cbr -e 210 -c 0 -i 33 -a 0 -x {1.0 5.0 29 ------- null}
- -t 0.20875 -s 1 -d 2 -p cbr -e 210 -c 0 -i 33 -a 0 -x {1.0 5.0 29 ------- null}
h -t 0.20875 -s 1 -d 2 -p cbr -e 210 -c 0 -i 33 -a 0 -x {1.0 5.0 -1 ------- null}
r -t 0.20918 -s 1 -d 2 -p cbr -e 210 -c 0 -i 30 -a 0 -x {1.0 5.0 26 ------- null}
+ -t 0.20918 -s 2 -d 3 -p cbr -e 210 -c 0 -i 30 -a 0 -x {1.0 5.0 26 ------- null}
- -t 0.21048 -s 2 -d 3 -p cbr -e 210 -c 0 -i 27 -a 0 -x {1.0 5.0 23 ------- null}
h -t 0.21048 -s 2 -d 3 -p cbr -e 210 -c 0 -i 27 -a 0 -x {1.0 5.0 -1 ------- null}
+ -t 0.2125 -s 1 -d 2 -p cbr -e 210 -c 0 -i 34 -a 0 -x {1.0 5.0 30 ------- null}
- -t 0.2125 -s 1 -d 2 -p cbr -e 210 -c 0 -i 34 -a 0 -x {1.0 5.0 30 ------- null}
h -t 0.2125 -s 1 -d 2 -p cbr -e 210 -c 0 -i 34 -a 0 -x {1.0 5.0 -1 ------- null}
- -t 0.21258 -s 2 -d 3 -p cbr -e 210 -c 0 -i 28 -a 0 -x {1.0 5.0 24 ------- null}
h -t 0.21258 -s 2 -d 3 -p cbr -e 210 -c 0 -i 28 -a 0 -x {1.0 5.0 -1 ------- null}
r -t 0.21293 -s 1 -d 2 -p cbr -e 210 -c 0 -i 31 -a 0 -x {1.0 5.0 27 ------- null}
+ -t 0.21293 -s 2 -d 3 -p cbr -e 210 -c 0 -i 31 -a 0 -x {1.0 5.0 27 ------- null}
- -t 0.21468 -s 2 -d 3 -p cbr -e 210 -c 0 -i 29 -a 0 -x {1.0 5.0 25 ------- null}
h -t 0.21468 -s 2 -d 3 -p cbr -e 210 -c 0 -i 29 -a 0 -x {1.0 5.0 -1 ------- null}
r -t 0.21546 -s 3 -d 5 -p cbr -e 210 -c 0 -i 23 -a 0 -x {1.0 5.0 19 ------- null}
+ -t 0.21625 -s 1 -d 2 -p cbr -e 210 -c 0 -i 35 -a 0 -x {1.0 5.0 31 ------- null}
- -t 0.21625 -s 1 -d 2 -p cbr -e 210 -c 0 -i 35 -a 0 -x {1.0 5.0 31 ------- null}
h -t 0.21625 -s 1 -d 2 -p cbr -e 210 -c 0 -i 35 -a 0 -x {1.0 5.0 -1 ------- null}
r -t 0.21628 -s 2 -d 3 -p tcp -e 1040 -c 0 -i 20 -a 0 -x {0.0 4.0 2 ------- null}
+ -t 0.21628 -s 3 -d 4 -p tcp -e 1040 -c 0 -i 20 -a 0 -x {0.0 4.0 2 ------- null}
- -t 0.21628 -s 3 -d 4 -p tcp -e 1040 -c 0 -i 20 -a 0 -x {0.0 4.0 2 ------- null}
h -t 0.21628 -s 3 -d 4 -p tcp -e 1040 -c 0 -i 20 -a 0 -x {0.0 4.0 -1 ------- null}
r -t 0.21668 -s 1 -d 2 -p cbr -e 210 -c 0 -i 32 -a 0 -x {1.0 5.0 28 ------- null}
+ -t 0.21668 -s 2 -d 3 -p cbr -e 210 -c 0 -i 32 -a 0 -x {1.0 5.0 28 ------- null}
- -t 0.21678 -s 2 -d 3 -p cbr -e 210 -c 0 -i 30 -a 0 -x {1.0 5.0 26 ------- null}
h -t 0.21678 -s 2 -d 3 -p cbr -e 210 -c 0 -i 30 -a 0 -x {1.0 5.0 -1 ------- null}